 vasp.5.4.4.18Apr17-6-g9f103f2a35 (build Jun 29 2018 09:26:27) complex          
  
 executed on             LinuxIFC date 2020.09.02  08:40:44
 running on    4 total cores
 distrk:  each k-point on    4 cores,    1 groups
 distr:  one band on NCORES_PER_BAND=   1 cores,    4 groups


--------------------------------------------------------------------------------------------------------


 INCAR:
 POTCAR:    PAW_PBE Se 06Sep2000                  
 POTCAR:    PAW_PBE Mo 08Apr2002                  
 POTCAR:    PAW_PBE Se 06Sep2000                  
   VRHFIN =Se: s2p4                                                             
   LEXCH  = PE                                                                  
   EATOM  =   257.1286 eV,   18.8984 Ry                                         
                                                                                
   TITEL  = PAW_PBE Se 06Sep2000                                                
   LULTRA =        F    use ultrasoft PP ?                                      
   IUNSCR =        1    unscreen: 0-lin 1-nonlin 2-no                           
   RPACOR =    1.900    partial core radius                                     
   POMASS =   78.960; ZVAL   =    6.000    mass and valenz                      
   RCORE  =    2.100    outmost cutoff radius                                   
   RWIGS  =    2.200; RWIGS  =    1.164    wigner-seitz radius (au A)           
   ENMAX  =  211.555; ENMIN  =  158.666 eV                                      
   ICORE  =        3    local potential                                         
   LCOR   =        T    correct aug charges                                     
   LPAW   =        T    paw PP                                                  
   EAUG   =  446.842                                                            
   DEXC   =    0.000                                                            
   RMAX   =    2.147    core radius for proj-oper                               
   RAUG   =    1.300    factor for augmentation sphere                          
   RDEP   =    2.177    radius for radial grids                                 
   RDEPT  =    1.928    core radius for aug-charge                              
                                                                                
   Atomic configuration                                                         
   10 entries                                                                   
     n  l   j            E        occ.                                          
     1  0  0.50    -12503.4787   2.0000                                         
     2  0  0.50     -1606.9547   2.0000                                         
     2  1  1.50     -1413.3140   6.0000                                         
     3  0  0.50      -213.4885   2.0000                                         
     3  1  1.50      -152.9538   6.0000                                         
     3  2  2.50       -53.1221  10.0000                                         
     4  0  0.50       -17.2865   2.0000                                         
     4  1  0.50        -6.5110   4.0000                                         
     4  2  2.50        -6.8029   0.0000                                         
     4  3  2.50        -6.8029   0.0000                                         
   Description                                                                  
     l       E           TYP  RCUT    TYP  RCUT                                 
     0    -17.2865377     23  2.100                                             
     0    -15.3094411     23  2.100                                             
     1     -6.5110275     23  2.100                                             
     1     -0.0695192     23  2.100                                             
     2     -6.8029130     23  2.100                                             
     3     -1.3605826      7  2.100                                             
  local pseudopotential read in
  partial core-charges read in
  partial kinetic energy density read in
  atomic valenz-charges read in
  non local Contribution for L=           0  read in
    real space projection operators read in
  non local Contribution for L=           0  read in
    real space projection operators read in
  non local Contribution for L=           1  read in
    real space projection operators read in
  non local Contribution for L=           1  read in
    real space projection operators read in
  non local Contribution for L=           2  read in
    real space projection operators read in
    PAW grid and wavefunctions read in
 
   number of l-projection  operators is LMAX  =           5
   number of lm-projection operators is LMMAX =          13
 
 POTCAR:    PAW_PBE Mo 08Apr2002                  
   VRHFIN =Mo: 4p5s4d                                                           
   LEXCH  = PE                                                                  
   EATOM  =   217.5176 eV,   15.9871 Ry                                         
                                                                                
   TITEL  = PAW_PBE Mo 08Apr2002                                                
   LULTRA =        F    use ultrasoft PP ?                                      
   IUNSCR =        1    unscreen: 0-lin 1-nonlin 2-no                           
   RPACOR =    2.200    partial core radius                                     
   POMASS =   95.940; ZVAL   =    6.000    mass and valenz                      
   RCORE  =    2.750    outmost cutoff radius                                   
   RWIGS  =    2.750; RWIGS  =    1.455    wigner-seitz radius (au A)           
   ENMAX  =  224.584; ENMIN  =  168.438 eV                                      
   RCLOC  =    2.111    cutoff for local pot                                    
   LCOR   =        T    correct aug charges                                     
   LPAW   =        T    paw PP                                                  
   EAUG   =  345.278                                                            
   DEXC   =    0.000                                                            
   RMAX   =    2.821    core radius for proj-oper                               
   RAUG   =    1.300    factor for augmentation sphere                          
   RDEP   =    2.815    radius for radial grids                                 
   RDEPT  =    2.211    core radius for aug-charge                              
                                                                                
   Atomic configuration                                                         
   12 entries                                                                   
     n  l   j            E        occ.                                          
     1  0  0.50    -19819.0341   2.0000                                         
     2  0  0.50     -2799.0127   2.0000                                         
     2  1  1.50     -2502.0276   6.0000                                         
     3  0  0.50      -476.4448   2.0000                                         
     3  1  1.50      -379.1496   6.0000                                         
     3  2  2.50      -220.9367  10.0000                                         
     4  0  0.50       -64.3378   2.0000                                         
     4  1  1.50       -38.4773   6.0000                                         
     4  2  2.50        -3.7535   5.0000                                         
     5  0  0.50        -4.0862   1.0000                                         
     5  1  0.50        -2.7701   0.0000                                         
     4  3  2.50        -1.3606   0.0000                                         
   Description                                                                  
     l       E           TYP  RCUT    TYP  RCUT                                 
     2     -3.7534765     23  2.500                                             
     2     -5.1140591     23  2.500                                             
     0     -4.0861560     23  2.600                                             
     0     13.6058260     23  2.600                                             
     1      5.4423304     23  2.750                                             
     1     27.2116520     23  2.750                                             
  local pseudopotential read in
  partial core-charges read in
  partial kinetic energy density read in
  atomic valenz-charges read in
  non local Contribution for L=           2  read in
    real space projection operators read in
  non local Contribution for L=           2  read in
    real space projection operators read in
  non local Contribution for L=           0  read in
    real space projection operators read in
  non local Contribution for L=           0  read in
    real space projection operators read in
  non local Contribution for L=           1  read in
    real space projection operators read in
  non local Contribution for L=           1  read in
    real space projection operators read in
    PAW grid and wavefunctions read in
 
   number of l-projection  operators is LMAX  =           6
   number of lm-projection operators is LMMAX =          18
 
  PAW_PBE Se 06Sep2000                  :
 energy of atom  1       EATOM= -257.1286
 kinetic energy error for atom=    0.0011 (will be added to EATOM!!)
  PAW_PBE Mo 08Apr2002                  :
 energy of atom  2       EATOM= -217.5176
 kinetic energy error for atom=    0.0023 (will be added to EATOM!!)
 
 
 POSCAR: Mo1S2   [HEX,HEX,hP6] (STD_PRIM doi:10.1
  positions in cartesian coordinates
  No initial velocities read in
 exchange correlation table for  LEXCH =        8
   RHO(1)=    0.500       N(1)  =     2000
   RHO(2)=  100.500       N(2)  =     4000
 


--------------------------------------------------------------------------------------------------------


 ion  position               nearest neighbor table
   1  0.667  0.333  0.088-   3 2.43   3 2.43   3 2.43
   2  0.667  0.333  0.241-   3 2.43   3 2.43   3 2.43
   3  0.333  0.667  0.164-   1 2.43   1 2.43   2 2.43   2 2.43   1 2.43   2 2.43
 
  LATTYP: Found a base centered orthorhombic cell.
 ALAT       =     3.2012515468
 B/A-ratio  =     1.7321488161
 C/A-ratio  =     6.3915047528
  
  Lattice vectors:
  
 A1 = (   3.2013874054,   0.0000000000,   0.0000000000)
 A2 = (  -1.6008295584,   2.7724043796,   0.0000000000)
 A3 = (   0.0000000000,   0.0000000000,  20.4608144760)


Analysis of symmetry for initial positions (statically):
=====================================================================
 Subroutine PRICEL returns:
 Original cell was already a primitive cell.
 

 Routine SETGRP: Setting up the symmetry group for a 
 base centered orthorhombic supercell.


 Subroutine GETGRP returns: Found  4 space group operations
 (whereof  2 operations were pure point group operations)
 out of a pool of  8 trial point group operations.


The static configuration has the point symmetry C_1h.
 The point group associated with its full space group is C_2v.


Analysis of symmetry for dynamics (positions and initial velocities):
=====================================================================
 Subroutine PRICEL returns:
 Original cell was already a primitive cell.
 

 Routine SETGRP: Setting up the symmetry group for a 
 base centered orthorhombic supercell.


 Subroutine GETGRP returns: Found  4 space group operations
 (whereof  2 operations were pure point group operations)
 out of a pool of  8 trial point group operations.


The dynamic configuration has the point symmetry C_1h.
 The point group associated with its full space group is C_2v.


 Subroutine INISYM returns: Found  4 space group operations
 (whereof  2 operations are pure point group operations),
 and found     1 'primitive' translations

 
 
 KPOINTS: k-points                                

Automatic generation of k-mesh.
Space group operators:
 irot       det(A)        alpha          n_x          n_y          n_z        tau_x        tau_y        tau_z
    1     1.000000     0.000000     1.000000     0.000000     0.000000     0.000000     0.000000     0.000000
    2    -1.000000   180.000000    -0.499979    -0.866038     0.000000     0.000000     0.000000     0.000000
    3    -1.000000   180.000000     0.000000     0.000000     1.000000     0.000000     0.000000     0.328941
    4     1.000000   180.000000     0.866038    -0.499979     0.000000     0.000000     0.000000     0.328941
 
 Subroutine IBZKPT returns following result:
 ===========================================
 
 Found     64 irreducible k-points:
 
 Following reciprocal coordinates:
            Coordinates               Weight
  0.000000  0.000000  0.000000      1.000000
  0.066667  0.000000  0.000000      4.000000
  0.133333 -0.000000  0.000000      4.000000
  0.200000 -0.000000  0.000000      4.000000
  0.266667 -0.000000  0.000000      4.000000
  0.333333  0.000000  0.000000      4.000000
  0.400000 -0.000000  0.000000      4.000000
  0.466667 -0.000000  0.000000      4.000000
  0.066667  0.066667  0.000000      2.000000
  0.133333  0.066667  0.000000      4.000000
  0.200000  0.066667  0.000000      4.000000
  0.266667  0.066667  0.000000      4.000000
  0.333333  0.066667  0.000000      4.000000
  0.400000  0.066667  0.000000      4.000000
  0.466667  0.066667  0.000000      4.000000
 -0.466667  0.066667  0.000000      4.000000
 -0.400000  0.066667  0.000000      4.000000
 -0.333333  0.066667  0.000000      4.000000
 -0.266667  0.066667  0.000000      4.000000
 -0.200000  0.066667  0.000000      4.000000
 -0.133333  0.066667  0.000000      4.000000
 -0.066667  0.066667  0.000000      2.000000
  0.133333  0.133333  0.000000      2.000000
  0.200000  0.133333  0.000000      4.000000
  0.266667  0.133333  0.000000      4.000000
  0.333333  0.133333  0.000000      4.000000
  0.400000  0.133333  0.000000      4.000000
  0.466667  0.133333  0.000000      4.000000
 -0.466667  0.133333  0.000000      4.000000
 -0.400000  0.133333  0.000000      4.000000
 -0.333333  0.133333  0.000000      4.000000
 -0.266667  0.133333  0.000000      4.000000
 -0.200000  0.133333  0.000000      4.000000
 -0.133333  0.133333  0.000000      2.000000
  0.200000  0.200000  0.000000      2.000000
  0.266667  0.200000  0.000000      4.000000
  0.333333  0.200000  0.000000      4.000000
  0.400000  0.200000  0.000000      4.000000
  0.466667  0.200000  0.000000      4.000000
 -0.466667  0.200000  0.000000      4.000000
 -0.400000  0.200000  0.000000      4.000000
 -0.333333  0.200000  0.000000      4.000000
 -0.266667  0.200000  0.000000      4.000000
 -0.200000  0.200000  0.000000      2.000000
  0.266667  0.266667  0.000000      2.000000
  0.333333  0.266667  0.000000      4.000000
  0.400000  0.266667  0.000000      4.000000
  0.466667  0.266667  0.000000      4.000000
 -0.466667  0.266667  0.000000      4.000000
 -0.400000  0.266667  0.000000      4.000000
 -0.333333  0.266667  0.000000      4.000000
 -0.266667  0.266667  0.000000      2.000000
  0.333333  0.333333  0.000000      2.000000
  0.400000  0.333333  0.000000      4.000000
  0.466667  0.333333  0.000000      4.000000
 -0.466667  0.333333  0.000000      4.000000
 -0.400000  0.333333  0.000000      4.000000
 -0.333333  0.333333  0.000000      2.000000
  0.400000  0.400000  0.000000      2.000000
  0.466667  0.400000  0.000000      4.000000
 -0.466667  0.400000  0.000000      4.000000
 -0.400000  0.400000  0.000000      2.000000
  0.466667  0.466667  0.000000      2.000000
 -0.466667  0.466667  0.000000      2.000000
 
 Following cartesian coordinates:
            Coordinates               Weight
  0.000000  0.000000  0.000000      1.000000
  0.020824  0.012024  0.000000      4.000000
  0.041649  0.024049  0.000000      4.000000
  0.062473  0.036073  0.000000      4.000000
  0.083297  0.048097  0.000000      4.000000
  0.104122  0.060121  0.000000      4.000000
  0.124946  0.072146  0.000000      4.000000
  0.145770  0.084170  0.000000      4.000000
  0.020824  0.036071  0.000000      2.000000
  0.041649  0.048095  0.000000      4.000000
  0.062473  0.060119  0.000000      4.000000
  0.083297  0.072144  0.000000      4.000000
  0.104122  0.084168  0.000000      4.000000
  0.124946  0.096192  0.000000      4.000000
  0.145770  0.108216  0.000000      4.000000
 -0.145770 -0.060123  0.000000      4.000000
 -0.124946 -0.048099  0.000000      4.000000
 -0.104122 -0.036075  0.000000      4.000000
 -0.083297 -0.024051  0.000000      4.000000
 -0.062473 -0.012026  0.000000      4.000000
 -0.041649 -0.000002  0.000000      4.000000
 -0.020824  0.012022  0.000000      2.000000
  0.041649  0.072142  0.000000      2.000000
  0.062473  0.084166  0.000000      4.000000
  0.083297  0.096190  0.000000      4.000000
  0.104122  0.108214  0.000000      4.000000
  0.124946  0.120239  0.000000      4.000000
  0.145770  0.132263  0.000000      4.000000
 -0.145770 -0.036077  0.000000      4.000000
 -0.124946 -0.024053  0.000000      4.000000
 -0.104122 -0.012028  0.000000      4.000000
 -0.083297 -0.000004  0.000000      4.000000
 -0.062473  0.012020  0.000000      4.000000
 -0.041649  0.024044  0.000000      2.000000
  0.062473  0.108212  0.000000      2.000000
  0.083297  0.120237  0.000000      4.000000
  0.104122  0.132261  0.000000      4.000000
  0.124946  0.144285  0.000000      4.000000
  0.145770  0.156309  0.000000      4.000000
 -0.145770 -0.012030  0.000000      4.000000
 -0.124946 -0.000006  0.000000      4.000000
 -0.104122  0.012018  0.000000      4.000000
 -0.083297  0.024042  0.000000      4.000000
 -0.062473  0.036067  0.000000      2.000000
  0.083297  0.144283  0.000000      2.000000
  0.104122  0.156307  0.000000      4.000000
  0.124946  0.168332  0.000000      4.000000
  0.145770  0.180356  0.000000      4.000000
 -0.145770  0.012016  0.000000      4.000000
 -0.124946  0.024040  0.000000      4.000000
 -0.104122  0.036065  0.000000      4.000000
 -0.083297  0.048089  0.000000      2.000000
  0.104122  0.180354  0.000000      2.000000
  0.124946  0.192378  0.000000      4.000000
  0.145770  0.204403  0.000000      4.000000
 -0.145770  0.036063  0.000000      4.000000
 -0.124946  0.048087  0.000000      4.000000
 -0.104122  0.060111  0.000000      2.000000
  0.124946  0.216425  0.000000      2.000000
  0.145770  0.228449  0.000000      4.000000
 -0.145770  0.060109  0.000000      4.000000
 -0.124946  0.072133  0.000000      2.000000
  0.145770  0.252496  0.000000      2.000000
 -0.145770  0.084156  0.000000      2.000000
 


--------------------------------------------------------------------------------------------------------




 Dimension of arrays:
   k-points           NKPTS =     64   k-points in BZ     NKDIM =     64   number of bands    NBANDS=     16
   number of dos      NEDOS =    301   number of ions     NIONS =      3
   non local maximal  LDIM  =      6   non local SUM 2l+1 LMDIM =     18
   total plane-waves  NPLWV =  34992
   max r-space proj   IRMAX =      1   max aug-charges    IRDMAX=  12569
   dimension x,y,z NGX =    18 NGY =   18 NGZ =  108
   dimension x,y,z NGXF=    36 NGYF=   36 NGZF=  216
   support grid    NGXF=    36 NGYF=   36 NGZF=  216
   ions per type =               2   1
   NGX,Y,Z   is equivalent  to a cutoff of   9.35,  9.35,  8.78 a.u.
   NGXF,Y,Z  is equivalent  to a cutoff of  18.69, 18.69, 17.55 a.u.

 SYSTEM =  unknown system                          
 POSCAR =  Mo1S2   [HEX,HEX,hP6] (STD_PRIM doi:10.1

 Startparameter for this run:
   NWRITE =      2    write-flag & timer
   PREC   = normal    normal or accurate (medium, high low for compatibility)
   ISTART =      0    job   : 0-new  1-cont  2-samecut
   ICHARG =      2    charge: 1-file 2-atom 10-const
   ISPIN  =      1    spin polarized calculation?
   LNONCOLLINEAR =      F non collinear calculations
   LSORBIT =      F    spin-orbit coupling
   INIWAV =      1    electr: 0-lowe 1-rand  2-diag
   LASPH  =      F    aspherical Exc in radial PAW
   METAGGA=      F    non-selfconsistent MetaGGA calc.

 Electronic Relaxation 1
   ENCUT  =  450.0 eV  33.07 Ry    5.75 a.u.   5.54  5.54 35.39*2*pi/ulx,y,z
   ENINI  =  450.0     initial cutoff
   ENAUG  =  446.8 eV  augmentation charge cutoff
   NELM   =     60;   NELMIN=  2; NELMDL=  0     # of ELM steps 
   EDIFF  = 0.1E-06   stopping-criterion for ELM
   LREAL  =      F    real-space projection
   NLSPLINE    = F    spline interpolate recip. space projectors
   LCOMPAT=      F    compatible to vasp.4.4
   GGA_COMPAT  = T    GGA compatible to vasp.4.4-vasp.4.6
   LMAXPAW     = -100 max onsite density
   LMAXMIX     =    2 max onsite mixed and CHGCAR
   VOSKOWN=      0    Vosko Wilk Nusair interpolation
   ROPT   =    0.00000   0.00000
 Ionic relaxation
   EDIFFG = 0.1E-05   stopping-criterion for IOM
   NSW    =    150    number of steps for IOM
   NBLOCK =      1;   KBLOCK =    150    inner block; outer block 
   IBRION =      2    ionic relax: 0-MD 1-quasi-New 2-CG
   NFREE  =      1    steps in history (QN), initial steepest desc. (CG)
   ISIF   =      2    stress and relaxation
   IWAVPR =     11    prediction:  0-non 1-charg 2-wave 3-comb
   ISYM   =      2    0-nonsym 1-usesym 2-fastsym
   LCORR  =      T    Harris-Foulkes like correction to forces

   POTIM  = 0.5000    time-step for ionic-motion
   TEIN   =    0.0    initial temperature
   TEBEG  =    0.0;   TEEND  =   0.0 temperature during run
   SMASS  =  -3.00    Nose mass-parameter (am)
   estimated Nose-frequenzy (Omega)   =  0.10E-29 period in steps =****** mass=  -0.234E-27a.u.
   SCALEE = 1.0000    scale energy and forces
   NPACO  =    256;   APACO  = 16.0  distance and # of slots for P.C.
   PSTRESS=    0.0 pullay stress

  Mass of Ions in am
   POMASS =  78.96 95.94
  Ionic Valenz
   ZVAL   =   6.00  6.00
  Atomic Wigner-Seitz radii
   RWIGS  =  -1.00 -1.00
  virtual crystal weights 
   VCA    =   1.00  1.00
   NELECT =      18.0000    total number of electrons
   NUPDOWN=      -1.0000    fix difference up-down

 DOS related values:
   EMIN   =  10.00;   EMAX   =-10.00  energy-range for DOS
   EFERMI =   0.00
   ISMEAR =     0;   SIGMA  =   0.10  broadening in eV -4-tet -1-fermi 0-gaus

 Electronic relaxation 2 (details)
   IALGO  =     38    algorithm
   LDIAG  =      T    sub-space diagonalisation (order eigenvalues)
   LSUBROT=      F    optimize rotation matrix (better conditioning)
   TURBO    =      0    0=normal 1=particle mesh
   IRESTART =      0    0=no restart 2=restart with 2 vectors
   NREBOOT  =      0    no. of reboots
   NMIN     =      0    reboot dimension
   EREF     =   0.00    reference energy to select bands
   IMIX   =      4    mixing-type and parameters
     AMIX     =   0.40;   BMIX     =  1.00
     AMIX_MAG =   1.60;   BMIX_MAG =  1.00
     AMIN     =   0.10
     WC   =   100.;   INIMIX=   1;  MIXPRE=   1;  MAXMIX= -45

 Intra band minimization:
   WEIMIN = 0.0010     energy-eigenvalue tresh-hold
   EBREAK =  0.16E-08  absolut break condition
   DEPER  =   0.30     relativ break condition  

   TIME   =   0.40     timestep for ELM

  volume/ion in A,a.u.               =      60.53       408.50
  Fermi-wavevector in a.u.,A,eV,Ry     =   0.757635  1.431722  7.809881  0.574010
  Thomas-Fermi vector in A             =   1.856025
 
 Write flags
   LWAVE        =      T    write WAVECAR
   LDOWNSAMPLE  =      F    k-point downsampling of WAVECAR
   LCHARG       =      T    write CHGCAR
   LVTOT        =      F    write LOCPOT, total local potential
   LVHAR        =      F    write LOCPOT, Hartree potential only
   LELF         =      F    write electronic localiz. function (ELF)
   LORBIT       =      0    0 simple, 1 ext, 2 COOP (PROOUT), +10 PAW based schemes


 Dipole corrections
   LMONO  =      F    monopole corrections only (constant potential shift)
   LDIPOL =      F    correct potential (dipole corrections)
   IDIPOL =      0    1-x, 2-y, 3-z, 4-all directions 
   EPSILON=  1.0000000 bulk dielectric constant

 Exchange correlation treatment:
   GGA     =    --    GGA type
   LEXCH   =     8    internal setting for exchange type
   VOSKOWN=      0    Vosko Wilk Nusair interpolation
   LHFCALC =     F    Hartree Fock is set to
   LHFONE  =     F    Hartree Fock one center treatment
   AEXX    =    0.0000 exact exchange contribution

 Linear response parameters
   LEPSILON=     F    determine dielectric tensor
   LRPA    =     F    only Hartree local field effects (RPA)
   LNABLA  =     F    use nabla operator in PAW spheres
   LVEL    =     F    velocity operator in full k-point grid
   LINTERFAST=   F  fast interpolation
   KINTER  =     0    interpolate to denser k-point grid
   CSHIFT  =0.1000    complex shift for real part using Kramers Kronig
   OMEGAMAX=  -1.0    maximum frequency
   DEG_THRESHOLD= 0.2000000E-02 threshold for treating states as degnerate
   RTIME   =   -0.100 relaxation time in fs
  (WPLASMAI=    0.000 imaginary part of plasma frequency in eV, 0.658/RTIME)
   DFIELD  = 0.0000000 0.0000000 0.0000000 field for delta impulse in time
 
 Orbital magnetization related:
   ORBITALMAG=     F  switch on orbital magnetization
   LCHIMAG   =     F  perturbation theory with respect to B field
   DQ        =  0.001000  dq finite difference perturbation B field
   LLRAUG    =     F  two centre corrections for induced B field



--------------------------------------------------------------------------------------------------------


 conjugate gradient relaxation of ions
 charge density and potential will be updated during run
 non-spin polarized calculation
 Variant of blocked Davidson
 Davidson routine will perform the subspace rotation
 perform sub-space diagonalisation
    after iterative eigenvector-optimisation
 modified Broyden-mixing scheme, WC =      100.0
 initial mixing is a Kerker type mixing with AMIX =  0.4000 and BMIX =      1.0000
 Hartree-type preconditioning will be used
 using additional bands            7
 reciprocal scheme for non local part
 use partial core corrections
 calculate Harris-corrections to forces 
   (improved forces if not selfconsistent)
 use gradient corrections 
 use of overlap-Matrix (Vanderbilt PP)
 Gauss-broadening in eV      SIGMA  =   0.10


--------------------------------------------------------------------------------------------------------


  energy-cutoff  :      450.00
  volume of cell :      181.60
      direct lattice vectors                 reciprocal lattice vectors
     3.201387405  0.000000000  0.000000000     0.312364570  0.180364178  0.000000000
    -1.600829558  2.772404380  0.000000000     0.000000000  0.360697742  0.000000000
     0.000000000  0.000000000 20.460814476     0.000000000  0.000000000  0.048873910

  length of vectors
     3.201387405  3.201387405 20.460814476     0.360697742  0.360697742  0.048873910


 
 k-points in units of 2pi/SCALE and weight: k-points                                
   0.00000000  0.00000000  0.00000000       0.004
   0.02082430  0.01202428  0.00000000       0.018
   0.04164861  0.02404856  0.00000000       0.018
   0.06247291  0.03607284  0.00000000       0.018
   0.08329722  0.04809711  0.00000000       0.018
   0.10412152  0.06012139  0.00000000       0.018
   0.12494583  0.07214567  0.00000000       0.018
   0.14577013  0.08416995  0.00000000       0.018
   0.02082430  0.03607079  0.00000000       0.009
   0.04164861  0.04809507  0.00000000       0.018
   0.06247291  0.06011935  0.00000000       0.018
   0.08329722  0.07214363  0.00000000       0.018
   0.10412152  0.08416791  0.00000000       0.018
   0.12494583  0.09619219  0.00000000       0.018
   0.14577013  0.10821647  0.00000000       0.018
  -0.14577013 -0.06012343  0.00000000       0.018
  -0.12494583 -0.04809915  0.00000000       0.018
  -0.10412152 -0.03607488  0.00000000       0.018
  -0.08329722 -0.02405060  0.00000000       0.018
  -0.06247291 -0.01202632  0.00000000       0.018
  -0.04164861 -0.00000204  0.00000000       0.018
  -0.02082430  0.01202224  0.00000000       0.009
   0.04164861  0.07214159  0.00000000       0.009
   0.06247291  0.08416587  0.00000000       0.018
   0.08329722  0.09619015  0.00000000       0.018
   0.10412152  0.10821442  0.00000000       0.018
   0.12494583  0.12023870  0.00000000       0.018
   0.14577013  0.13226298  0.00000000       0.018
  -0.14577013 -0.03607692  0.00000000       0.018
  -0.12494583 -0.02405264  0.00000000       0.018
  -0.10412152 -0.01202836  0.00000000       0.018
  -0.08329722 -0.00000408  0.00000000       0.018
  -0.06247291  0.01202020  0.00000000       0.018
  -0.04164861  0.02404448  0.00000000       0.009
   0.06247291  0.10821238  0.00000000       0.009
   0.08329722  0.12023666  0.00000000       0.018
   0.10412152  0.13226094  0.00000000       0.018
   0.12494583  0.14428522  0.00000000       0.018
   0.14577013  0.15630950  0.00000000       0.018
  -0.14577013 -0.01203040  0.00000000       0.018
  -0.12494583 -0.00000612  0.00000000       0.018
  -0.10412152  0.01201816  0.00000000       0.018
  -0.08329722  0.02404243  0.00000000       0.018
  -0.06247291  0.03606671  0.00000000       0.009
   0.08329722  0.14428318  0.00000000       0.009
   0.10412152  0.15630746  0.00000000       0.018
   0.12494583  0.16833174  0.00000000       0.018
   0.14577013  0.18035601  0.00000000       0.018
  -0.14577013  0.01201611  0.00000000       0.018
  -0.12494583  0.02404039  0.00000000       0.018
  -0.10412152  0.03606467  0.00000000       0.018
  -0.08329722  0.04808895  0.00000000       0.009
   0.10412152  0.18035397  0.00000000       0.009
   0.12494583  0.19237825  0.00000000       0.018
   0.14577013  0.20440253  0.00000000       0.018
  -0.14577013  0.03606263  0.00000000       0.018
  -0.12494583  0.04808691  0.00000000       0.018
  -0.10412152  0.06011119  0.00000000       0.009
   0.12494583  0.21642477  0.00000000       0.009
   0.14577013  0.22844905  0.00000000       0.018
  -0.14577013  0.06010915  0.00000000       0.018
  -0.12494583  0.07213343  0.00000000       0.009
   0.14577013  0.25249556  0.00000000       0.009
  -0.14577013  0.08415566  0.00000000       0.009
 
 k-points in reciprocal lattice and weights: k-points                                
   0.00000000  0.00000000  0.00000000       0.004
   0.06666667  0.00000000  0.00000000       0.018
   0.13333333 -0.00000000  0.00000000       0.018
   0.20000000 -0.00000000  0.00000000       0.018
   0.26666667 -0.00000000  0.00000000       0.018
   0.33333333  0.00000000  0.00000000       0.018
   0.40000000 -0.00000000  0.00000000       0.018
   0.46666667 -0.00000000  0.00000000       0.018
   0.06666667  0.06666667  0.00000000       0.009
   0.13333333  0.06666667  0.00000000       0.018
   0.20000000  0.06666667  0.00000000       0.018
   0.26666667  0.06666667  0.00000000       0.018
   0.33333333  0.06666667  0.00000000       0.018
   0.40000000  0.06666667  0.00000000       0.018
   0.46666667  0.06666667  0.00000000       0.018
  -0.46666667  0.06666667  0.00000000       0.018
  -0.40000000  0.06666667  0.00000000       0.018
  -0.33333333  0.06666667  0.00000000       0.018
  -0.26666667  0.06666667  0.00000000       0.018
  -0.20000000  0.06666667  0.00000000       0.018
  -0.13333333  0.06666667  0.00000000       0.018
  -0.06666667  0.06666667  0.00000000       0.009
   0.13333333  0.13333333  0.00000000       0.009
   0.20000000  0.13333333  0.00000000       0.018
   0.26666667  0.13333333  0.00000000       0.018
   0.33333333  0.13333333  0.00000000       0.018
   0.40000000  0.13333333  0.00000000       0.018
   0.46666667  0.13333333  0.00000000       0.018
  -0.46666667  0.13333333  0.00000000       0.018
  -0.40000000  0.13333333  0.00000000       0.018
  -0.33333333  0.13333333  0.00000000       0.018
  -0.26666667  0.13333333  0.00000000       0.018
  -0.20000000  0.13333333  0.00000000       0.018
  -0.13333333  0.13333333  0.00000000       0.009
   0.20000000  0.20000000  0.00000000       0.009
   0.26666667  0.20000000  0.00000000       0.018
   0.33333333  0.20000000  0.00000000       0.018
   0.40000000  0.20000000  0.00000000       0.018
   0.46666667  0.20000000  0.00000000       0.018
  -0.46666667  0.20000000  0.00000000       0.018
  -0.40000000  0.20000000  0.00000000       0.018
  -0.33333333  0.20000000  0.00000000       0.018
  -0.26666667  0.20000000  0.00000000       0.018
  -0.20000000  0.20000000  0.00000000       0.009
   0.26666667  0.26666667  0.00000000       0.009
   0.33333333  0.26666667  0.00000000       0.018
   0.40000000  0.26666667  0.00000000       0.018
   0.46666667  0.26666667  0.00000000       0.018
  -0.46666667  0.26666667  0.00000000       0.018
  -0.40000000  0.26666667  0.00000000       0.018
  -0.33333333  0.26666667  0.00000000       0.018
  -0.26666667  0.26666667  0.00000000       0.009
   0.33333333  0.33333333  0.00000000       0.009
   0.40000000  0.33333333  0.00000000       0.018
   0.46666667  0.33333333  0.00000000       0.018
  -0.46666667  0.33333333  0.00000000       0.018
  -0.40000000  0.33333333  0.00000000       0.018
  -0.33333333  0.33333333  0.00000000       0.009
   0.40000000  0.40000000  0.00000000       0.009
   0.46666667  0.40000000  0.00000000       0.018
  -0.46666667  0.40000000  0.00000000       0.018
  -0.40000000  0.40000000  0.00000000       0.009
   0.46666667  0.46666667  0.00000000       0.009
  -0.46666667  0.46666667  0.00000000       0.009
 
 position of ions in fractional coordinates (direct lattice) 
   0.66668871  0.33331130  0.08773177
   0.66668871  0.33331130  0.24120957
   0.33331696  0.66668309  0.16447066
 
 position of ions in cartesian coordinates  (Angst):
   1.60075426  0.92407370  1.79506338
   1.60075426  0.92407370  4.93534422
  -0.00016928  1.84831512  3.36520362
 


--------------------------------------------------------------------------------------------------------


 k-point  1 :   0.0000 0.0000 0.0000  plane waves:    4007
 k-point  2 :   0.0667 0.0000 0.0000  plane waves:    3981
 k-point  3 :   0.1333-0.0000 0.0000  plane waves:    3983
 k-point  4 :   0.2000-0.0000 0.0000  plane waves:    3965
 k-point  5 :   0.2667-0.0000 0.0000  plane waves:    3946
 k-point  6 :   0.3333 0.0000 0.0000  plane waves:    3928
 k-point  7 :   0.4000-0.0000 0.0000  plane waves:    3908
 k-point  8 :   0.4667-0.0000 0.0000  plane waves:    3896
 k-point  9 :   0.0667 0.0667 0.0000  plane waves:    3989
 k-point 10 :   0.1333 0.0667 0.0000  plane waves:    3971
 k-point 11 :   0.2000 0.0667 0.0000  plane waves:    3952
 k-point 12 :   0.2667 0.0667 0.0000  plane waves:    3945
 k-point 13 :   0.3333 0.0667 0.0000  plane waves:    3924
 k-point 14 :   0.4000 0.0667 0.0000  plane waves:    3906
 k-point 15 :   0.4667 0.0667 0.0000  plane waves:    3894
 k-point 16 :  -0.4667 0.0667 0.0000  plane waves:    3906
 k-point 17 :  -0.4000 0.0667 0.0000  plane waves:    3924
 k-point 18 :  -0.3333 0.0667 0.0000  plane waves:    3947
 k-point 19 :  -0.2667 0.0667 0.0000  plane waves:    3952
 k-point 20 :  -0.2000 0.0667 0.0000  plane waves:    3971
 k-point 21 :  -0.1333 0.0667 0.0000  plane waves:    3989
 k-point 22 :  -0.0667 0.0667 0.0000  plane waves:    3981
 k-point 23 :   0.1333 0.1333 0.0000  plane waves:    3951
 k-point 24 :   0.2000 0.1333 0.0000  plane waves:    3942
 k-point 25 :   0.2667 0.1333 0.0000  plane waves:    3939
 k-point 26 :   0.3333 0.1333 0.0000  plane waves:    3926
 k-point 27 :   0.4000 0.1333 0.0000  plane waves:    3907
 k-point 28 :   0.4667 0.1333 0.0000  plane waves:    3907
 k-point 29 :  -0.4667 0.1333 0.0000  plane waves:    3926
 k-point 30 :  -0.4000 0.1333 0.0000  plane waves:    3939
 k-point 31 :  -0.3333 0.1333 0.0000  plane waves:    3940
 k-point 32 :  -0.2667 0.1333 0.0000  plane waves:    3951
 k-point 33 :  -0.2000 0.1333 0.0000  plane waves:    3971
 k-point 34 :  -0.1333 0.1333 0.0000  plane waves:    3983
 k-point 35 :   0.2000 0.2000 0.0000  plane waves:    3939
 k-point 36 :   0.2667 0.2000 0.0000  plane waves:    3942
 k-point 37 :   0.3333 0.2000 0.0000  plane waves:    3922
 k-point 38 :   0.4000 0.2000 0.0000  plane waves:    3914
 k-point 39 :   0.4667 0.2000 0.0000  plane waves:    3922
 k-point 40 :  -0.4667 0.2000 0.0000  plane waves:    3942
 k-point 41 :  -0.4000 0.2000 0.0000  plane waves:    3939
 k-point 42 :  -0.3333 0.2000 0.0000  plane waves:    3940
 k-point 43 :  -0.2667 0.2000 0.0000  plane waves:    3952
 k-point 44 :  -0.2000 0.2000 0.0000  plane waves:    3965
 k-point 45 :   0.2667 0.2667 0.0000  plane waves:    3918
 k-point 46 :   0.3333 0.2667 0.0000  plane waves:    3932
 k-point 47 :   0.4000 0.2667 0.0000  plane waves:    3932
 k-point 48 :   0.4667 0.2667 0.0000  plane waves:    3918
 k-point 49 :  -0.4667 0.2667 0.0000  plane waves:    3942
 k-point 50 :  -0.4000 0.2667 0.0000  plane waves:    3939
 k-point 51 :  -0.3333 0.2667 0.0000  plane waves:    3945
 k-point 52 :  -0.2667 0.2667 0.0000  plane waves:    3946
 k-point 53 :   0.3333 0.3333 0.0000  plane waves:    3972
 k-point 54 :   0.4000 0.3333 0.0000  plane waves:    3932
 k-point 55 :   0.4667 0.3333 0.0000  plane waves:    3922
 k-point 56 :  -0.4667 0.3333 0.0000  plane waves:    3926
 k-point 57 :  -0.4000 0.3333 0.0000  plane waves:    3924
 k-point 58 :  -0.3333 0.3333 0.0000  plane waves:    3928
 k-point 59 :   0.4000 0.4000 0.0000  plane waves:    3914
 k-point 60 :   0.4667 0.4000 0.0000  plane waves:    3907
 k-point 61 :  -0.4667 0.4000 0.0000  plane waves:    3906
 k-point 62 :  -0.4000 0.4000 0.0000  plane waves:    3910
 k-point 63 :   0.4667 0.4667 0.0000  plane waves:    3894
 k-point 64 :  -0.4667 0.4667 0.0000  plane waves:    3896

 maximum and minimum number of plane-waves per node :      4007     3894

 maximum number of plane-waves:      4007
 maximum index in each direction: 
   IXMAX=    6   IYMAX=    5   IZMAX=   35
   IXMIN=   -5   IYMIN=   -5   IZMIN=  -35


 serial   3D FFT for wavefunctions
 parallel 3D FFT for charge:
    minimum data exchange during FFTs selected (reduces bandwidth)


 total amount of memory used by VASP MPI-rank0   128573. kBytes
=======================================================================

   base      :      30000. kBytes
   nonl-proj :      74067. kBytes
   fftplans  :       2515. kBytes
   grid      :       5349. kBytes
   one-center:         46. kBytes
   wavefun   :      16596. kBytes
 
     INWAV:  cpu time    0.0000: real time    0.0001
 Broyden mixing: mesh for mixing (old mesh)
   NGX = 11   NGY = 11   NGZ = 71
  (NGX  = 36   NGY  = 36   NGZ  =216)
  gives a total of   8591 points

 initial charge density was supplied:
 charge density of overlapping atoms calculated
 number of electron      18.0000000 magnetization 
 keeping initial charge density in first step


--------------------------------------------------------------------------------------------------------


 Maximum index for augmentation-charges         2934 (set IRDMAX)


--------------------------------------------------------------------------------------------------------


 First call to EWALD:  gamma=   0.313
 Maximum number of real-space cells 5x 5x 1
 Maximum number of reciprocal cells 2x 2x 9

    FEWALD:  cpu time    0.0099: real time    0.0195


--------------------------------------- Iteration      1(   1)  ---------------------------------------


    POTLOK:  cpu time    0.0546: real time    0.1203
    SETDIJ:  cpu time    0.0060: real time    0.0080
     EDDAV:  cpu time    5.0348: real time    7.9420
       DOS:  cpu time    0.0063: real time    0.0139
    --------------------------------------------
      LOOP:  cpu time    5.1018: real time    8.0842

 eigenvalue-minimisations  :  2048
 total energy-change (2. order) : 0.1183711E+03  (-0.5799686E+03)
 number of electron      18.0000000 magnetization 
 augmentation part       18.0000000 magnetization 

 Free energy of the ion-electron system (eV)
  ---------------------------------------------------
  alpha Z        PSCENC =        22.86093774
  Ewald energy   TEWEN  =      2543.63114748
  -Hartree energ DENC   =     -3206.68878230
  -exchange      EXHF   =         0.00000000
  -V(xc)+E(xc)   XCENC  =       -61.21515525
  PAW double counting   =       686.18398044     -587.47020659
  entropy T*S    EENTRO =        -0.01033799
  eigenvalues    EBANDS =       -10.69081556
  atomic energy  EATOM  =       731.77029636
  Solvation  Ediel_sol  =         0.00000000
  ---------------------------------------------------
  free energy    TOTEN  =       118.37106432 eV

  energy without entropy =      118.38140231  energy(sigma->0) =      118.37623332


--------------------------------------------------------------------------------------------------------




--------------------------------------- Iteration      1(   2)  ---------------------------------------


     EDDAV:  cpu time    6.5975: real time   10.2853
       DOS:  cpu time    0.0005: real time    0.0059
    --------------------------------------------
      LOOP:  cpu time    6.5980: real time   10.2912

 eigenvalue-minimisations  :  3008
 total energy-change (2. order) :-0.1280395E+03  (-0.1184654E+03)
 number of electron      18.0000000 magnetization 
 augmentation part       18.0000000 magnetization 

 Free energy of the ion-electron system (eV)
  ---------------------------------------------------
  alpha Z        PSCENC =        22.86093774
  Ewald energy   TEWEN  =      2543.63114748
  -Hartree energ DENC   =     -3206.68878230
  -exchange      EXHF   =         0.00000000
  -V(xc)+E(xc)   XCENC  =       -61.21515525
  PAW double counting   =       686.18398044     -587.47020659
  entropy T*S    EENTRO =        -0.00000000
  eigenvalues    EBANDS =      -138.74061049
  atomic energy  EATOM  =       731.77029636
  Solvation  Ediel_sol  =         0.00000000
  ---------------------------------------------------
  free energy    TOTEN  =        -9.66839262 eV

  energy without entropy =       -9.66839262  energy(sigma->0) =       -9.66839262


--------------------------------------------------------------------------------------------------------




--------------------------------------- Iteration      1(   3)  ---------------------------------------


     EDDAV:  cpu time    6.1247: real time   10.0293
       DOS:  cpu time    0.0005: real time    0.0011
    --------------------------------------------
      LOOP:  cpu time    6.1253: real time   10.0304

 eigenvalue-minimisations  :  2800
 total energy-change (2. order) :-0.1051943E+02  (-0.1040804E+02)
 number of electron      18.0000000 magnetization 
 augmentation part       18.0000000 magnetization 

 Free energy of the ion-electron system (eV)
  ---------------------------------------------------
  alpha Z        PSCENC =        22.86093774
  Ewald energy   TEWEN  =      2543.63114748
  -Hartree energ DENC   =     -3206.68878230
  -exchange      EXHF   =         0.00000000
  -V(xc)+E(xc)   XCENC  =       -61.21515525
  PAW double counting   =       686.18398044     -587.47020659
  entropy T*S    EENTRO =        -0.00000000
  eigenvalues    EBANDS =      -149.26003806
  atomic energy  EATOM  =       731.77029636
  Solvation  Ediel_sol  =         0.00000000
  ---------------------------------------------------
  free energy    TOTEN  =       -20.18782019 eV

  energy without entropy =      -20.18782019  energy(sigma->0) =      -20.18782019


--------------------------------------------------------------------------------------------------------




--------------------------------------- Iteration      1(   4)  ---------------------------------------


     EDDAV:  cpu time    5.9377: real time    9.7012
       DOS:  cpu time    0.0006: real time    0.0026
    --------------------------------------------
      LOOP:  cpu time    5.9383: real time    9.7041

 eigenvalue-minimisations  :  2496
 total energy-change (2. order) :-0.1696137E+00  (-0.1694431E+00)
 number of electron      18.0000000 magnetization 
 augmentation part       18.0000000 magnetization 

 Free energy of the ion-electron system (eV)
  ---------------------------------------------------
  alpha Z        PSCENC =        22.86093774
  Ewald energy   TEWEN  =      2543.63114748
  -Hartree energ DENC   =     -3206.68878230
  -exchange      EXHF   =         0.00000000
  -V(xc)+E(xc)   XCENC  =       -61.21515525
  PAW double counting   =       686.18398044     -587.47020659
  entropy T*S    EENTRO =        -0.00000000
  eigenvalues    EBANDS =      -149.42965177
  atomic energy  EATOM  =       731.77029636
  Solvation  Ediel_sol  =         0.00000000
  ---------------------------------------------------
  free energy    TOTEN  =       -20.35743390 eV

  energy without entropy =      -20.35743390  energy(sigma->0) =      -20.35743390


--------------------------------------------------------------------------------------------------------




--------------------------------------- Iteration      1(   5)  ---------------------------------------


     EDDAV:  cpu time    5.8465: real time    9.2356
       DOS:  cpu time    0.0010: real time    0.0016
    CHARGE:  cpu time    0.1177: real time    0.1984
    MIXING:  cpu time    0.0013: real time    0.0026
    --------------------------------------------
      LOOP:  cpu time    5.9666: real time    9.4379

 eigenvalue-minimisations  :  2832
 total energy-change (2. order) :-0.3126330E-02  (-0.3125681E-02)
 number of electron      17.9999991 magnetization 
 augmentation part       -1.3900718 magnetization 

 Broyden mixing:
  rms(total) = 0.24043E+01    rms(broyden)= 0.24043E+01
  rms(prec ) = 0.24175E+01
  weight for this iteration     100.00

 Free energy of the ion-electron system (eV)
  ---------------------------------------------------
  alpha Z        PSCENC =        22.86093774
  Ewald energy   TEWEN  =      2543.63114748
  -Hartree energ DENC   =     -3206.68878230
  -exchange      EXHF   =         0.00000000
  -V(xc)+E(xc)   XCENC  =       -61.21515525
  PAW double counting   =       686.18398044     -587.47020659
  entropy T*S    EENTRO =        -0.00000000
  eigenvalues    EBANDS =      -149.43277810
  atomic energy  EATOM  =       731.77029636
  Solvation  Ediel_sol  =         0.00000000
  ---------------------------------------------------
  free energy    TOTEN  =       -20.36056023 eV

  energy without entropy =      -20.36056023  energy(sigma->0) =      -20.36056023


--------------------------------------------------------------------------------------------------------




--------------------------------------- Iteration      1(   6)  ---------------------------------------


    POTLOK:  cpu time    0.0485: real time    0.0976
    SETDIJ:  cpu time    0.0050: real time    0.0130
     EDDAV:  cpu time    5.9416: real time    9.1901
       DOS:  cpu time    0.0068: real time    0.0172
    CHARGE:  cpu time    0.1190: real time    0.2416
    MIXING:  cpu time    0.0100: real time    0.0202
    --------------------------------------------
      LOOP:  cpu time    6.1309: real time    9.5796

 eigenvalue-minimisations  :  2424
 total energy-change (2. order) : 0.6390465E+00  (-0.1925127E+00)
 number of electron      17.9999991 magnetization 
 augmentation part       -1.0255124 magnetization 

 Broyden mixing:
  rms(total) = 0.83514E+00    rms(broyden)= 0.83513E+00
  rms(prec ) = 0.84823E+00
  weight for this iteration     100.00

 eigenvalues of (default mixing * dielectric matrix)
  average eigenvalue GAMMA=   1.4477
  1.4477

 Free energy of the ion-electron system (eV)
  ---------------------------------------------------
  alpha Z        PSCENC =        22.86093774
  Ewald energy   TEWEN  =      2543.63114748
  -Hartree energ DENC   =     -3207.08248515
  -exchange      EXHF   =         0.00000000
  -V(xc)+E(xc)   XCENC  =       -60.65762135
  PAW double counting   =       932.90591078     -835.13910499
  entropy T*S    EENTRO =        -0.00000000
  eigenvalues    EBANDS =      -148.01059455
  atomic energy  EATOM  =       731.77029636
  Solvation  Ediel_sol  =         0.00000000
  ---------------------------------------------------
  free energy    TOTEN  =       -19.72151369 eV

  energy without entropy =      -19.72151369  energy(sigma->0) =      -19.72151369


--------------------------------------------------------------------------------------------------------




--------------------------------------- Iteration      1(   7)  ---------------------------------------


    POTLOK:  cpu time    0.0404: real time    0.0881
    SETDIJ:  cpu time    0.0026: real time    0.0066
     EDDAV:  cpu time    6.6085: real time   10.3179
       DOS:  cpu time    0.0006: real time    0.0011
    CHARGE:  cpu time    0.1138: real time    0.1479
    MIXING:  cpu time    0.0094: real time    0.0237
    --------------------------------------------
      LOOP:  cpu time    6.7752: real time   10.5853

 eigenvalue-minimisations  :  2656
 total energy-change (2. order) : 0.1096279E+00  (-0.1208275E+00)
 number of electron      17.9999991 magnetization 
 augmentation part       -1.2440784 magnetization 

 Broyden mixing:
  rms(total) = 0.63844E+00    rms(broyden)= 0.63844E+00
  rms(prec ) = 0.65012E+00
  weight for this iteration     100.00

 eigenvalues of (default mixing * dielectric matrix)
  average eigenvalue GAMMA=   1.3825
  2.1124  0.6526

 Free energy of the ion-electron system (eV)
  ---------------------------------------------------
  alpha Z        PSCENC =        22.86093774
  Ewald energy   TEWEN  =      2543.63114748
  -Hartree energ DENC   =     -3216.01087777
  -exchange      EXHF   =         0.00000000
  -V(xc)+E(xc)   XCENC  =       -60.58133935
  PAW double counting   =      1162.91808863    -1065.84806604
  entropy T*S    EENTRO =        -0.00000000
  eigenvalues    EBANDS =      -138.35207286
  atomic energy  EATOM  =       731.77029636
  Solvation  Ediel_sol  =         0.00000000
  ---------------------------------------------------
  free energy    TOTEN  =       -19.61188582 eV

  energy without entropy =      -19.61188582  energy(sigma->0) =      -19.61188582


--------------------------------------------------------------------------------------------------------




--------------------------------------- Iteration      1(   8)  ---------------------------------------


    POTLOK:  cpu time    0.0543: real time    0.1008
    SETDIJ:  cpu time    0.0029: real time    0.0105
     EDDAV:  cpu time    6.2878: real time    9.5583
       DOS:  cpu time    0.0009: real time    0.0035
    CHARGE:  cpu time    0.1227: real time    0.2464
    MIXING:  cpu time    0.0020: real time    0.0047
    --------------------------------------------
      LOOP:  cpu time    6.4706: real time    9.9243

 eigenvalue-minimisations  :  2712
 total energy-change (2. order) : 0.1334103E+00  (-0.2228189E-01)
 number of electron      17.9999991 magnetization 
 augmentation part       -1.1210694 magnetization 

 Broyden mixing:
  rms(total) = 0.73106E-01    rms(broyden)= 0.73106E-01
  rms(prec ) = 0.75195E-01
  weight for this iteration     100.00

 eigenvalues of (default mixing * dielectric matrix)
  average eigenvalue GAMMA=   1.4063
  2.4064  1.1605  0.6521

 Free energy of the ion-electron system (eV)
  ---------------------------------------------------
  alpha Z        PSCENC =        22.86093774
  Ewald energy   TEWEN  =      2543.63114748
  -Hartree energ DENC   =     -3216.51886090
  -exchange      EXHF   =         0.00000000
  -V(xc)+E(xc)   XCENC  =       -60.30699141
  PAW double counting   =      1310.96187880    -1214.27332210
  entropy T*S    EENTRO =        -0.00000000
  eigenvalues    EBANDS =      -137.60356151
  atomic energy  EATOM  =       731.77029636
  Solvation  Ediel_sol  =         0.00000000
  ---------------------------------------------------
  free energy    TOTEN  =       -19.47847554 eV

  energy without entropy =      -19.47847554  energy(sigma->0) =      -19.47847554


--------------------------------------------------------------------------------------------------------




--------------------------------------- Iteration      1(   9)  ---------------------------------------


    POTLOK:  cpu time    0.0752: real time    0.0861
    SETDIJ:  cpu time    0.0071: real time    0.0158
     EDDAV:  cpu time    6.4697: real time   10.3082
       DOS:  cpu time    0.0071: real time    0.0149
    CHARGE:  cpu time    0.1235: real time    0.1740
    MIXING:  cpu time    0.0088: real time    0.0173
    --------------------------------------------
      LOOP:  cpu time    6.6913: real time   10.6162

 eigenvalue-minimisations  :  2888
 total energy-change (2. order) : 0.5334460E-03  (-0.3454018E-02)
 number of electron      17.9999991 magnetization 
 augmentation part       -1.0959672 magnetization 

 Broyden mixing:
  rms(total) = 0.31608E-01    rms(broyden)= 0.31608E-01
  rms(prec ) = 0.34883E-01
  weight for this iteration     100.00

 eigenvalues of (default mixing * dielectric matrix)
  average eigenvalue GAMMA=   1.3976
  2.6035  1.5757  0.7057  0.7057

 Free energy of the ion-electron system (eV)
  ---------------------------------------------------
  alpha Z        PSCENC =        22.86093774
  Ewald energy   TEWEN  =      2543.63114748
  -Hartree energ DENC   =     -3217.73991651
  -exchange      EXHF   =         0.00000000
  -V(xc)+E(xc)   XCENC  =       -60.23103204
  PAW double counting   =      1352.40173926    -1255.80529352
  entropy T*S    EENTRO =        -0.00000000
  eigenvalues    EBANDS =      -136.36582087
  atomic energy  EATOM  =       731.77029636
  Solvation  Ediel_sol  =         0.00000000
  ---------------------------------------------------
  free energy    TOTEN  =       -19.47794209 eV

  energy without entropy =      -19.47794209  energy(sigma->0) =      -19.47794209


--------------------------------------------------------------------------------------------------------




--------------------------------------- Iteration      1(  10)  ---------------------------------------


    POTLOK:  cpu time    0.0536: real time    0.1206
    SETDIJ:  cpu time    0.0253: real time    0.0621
     EDDAV:  cpu time    6.5005: real time   10.0312
       DOS:  cpu time    0.0036: real time    0.0151
    CHARGE:  cpu time    0.1177: real time    0.2352
    MIXING:  cpu time    0.0066: real time    0.0130
    --------------------------------------------
      LOOP:  cpu time    6.7073: real time   10.4771

 eigenvalue-minimisations  :  2768
 total energy-change (2. order) : 0.1795442E-02  (-0.3258832E-03)
 number of electron      17.9999991 magnetization 
 augmentation part       -1.1076553 magnetization 

 Broyden mixing:
  rms(total) = 0.12398E-01    rms(broyden)= 0.12398E-01
  rms(prec ) = 0.14291E-01
  weight for this iteration     100.00

 eigenvalues of (default mixing * dielectric matrix)
  average eigenvalue GAMMA=   1.3817
  2.4499  1.6465  0.7002  1.0559  1.0559

 Free energy of the ion-electron system (eV)
  ---------------------------------------------------
  alpha Z        PSCENC =        22.86093774
  Ewald energy   TEWEN  =      2543.63114748
  -Hartree energ DENC   =     -3218.76783329
  -exchange      EXHF   =         0.00000000
  -V(xc)+E(xc)   XCENC  =       -60.21394441
  PAW double counting   =      1366.06409424    -1269.48374518
  entropy T*S    EENTRO =        -0.00000000
  eigenvalues    EBANDS =      -135.33709959
  atomic energy  EATOM  =       731.77029636
  Solvation  Ediel_sol  =         0.00000000
  ---------------------------------------------------
  free energy    TOTEN  =       -19.47614665 eV

  energy without entropy =      -19.47614665  energy(sigma->0) =      -19.47614665


--------------------------------------------------------------------------------------------------------




--------------------------------------- Iteration      1(  11)  ---------------------------------------


    POTLOK:  cpu time    0.0424: real time    0.0941
    SETDIJ:  cpu time    0.0071: real time    0.0168
     EDDAV:  cpu time    5.9553: real time    9.7676
       DOS:  cpu time    0.0009: real time    0.0023
    CHARGE:  cpu time    0.1190: real time    0.2380
    MIXING:  cpu time    0.0039: real time    0.0080
    --------------------------------------------
      LOOP:  cpu time    6.1286: real time   10.1268

 eigenvalue-minimisations  :  2728
 total energy-change (2. order) : 0.1071112E-03  (-0.2432495E-04)
 number of electron      17.9999991 magnetization 
 augmentation part       -1.1068505 magnetization 

 Broyden mixing:
  rms(total) = 0.68715E-02    rms(broyden)= 0.68715E-02
  rms(prec ) = 0.92555E-02
  weight for this iteration     100.00

 eigenvalues of (default mixing * dielectric matrix)
  average eigenvalue GAMMA=   1.5698
  2.6119  2.6119  1.5825  0.7197  0.8002  1.0924

 Free energy of the ion-electron system (eV)
  ---------------------------------------------------
  alpha Z        PSCENC =        22.86093774
  Ewald energy   TEWEN  =      2543.63114748
  -Hartree energ DENC   =     -3219.22203381
  -exchange      EXHF   =         0.00000000
  -V(xc)+E(xc)   XCENC  =       -60.21026508
  PAW double counting   =      1362.69608699    -1266.09943975
  entropy T*S    EENTRO =        -0.00000000
  eigenvalues    EBANDS =      -134.90276947
  atomic energy  EATOM  =       731.77029636
  Solvation  Ediel_sol  =         0.00000000
  ---------------------------------------------------
  free energy    TOTEN  =       -19.47603954 eV

  energy without entropy =      -19.47603954  energy(sigma->0) =      -19.47603954


--------------------------------------------------------------------------------------------------------




--------------------------------------- Iteration      1(  12)  ---------------------------------------


    POTLOK:  cpu time    0.0496: real time    0.1020
    SETDIJ:  cpu time    0.0038: real time    0.0074
     EDDAV:  cpu time    6.7567: real time   10.7196
       DOS:  cpu time    0.0007: real time    0.0009
    CHARGE:  cpu time    0.1178: real time    0.1711
    MIXING:  cpu time    0.0080: real time    0.0172
    --------------------------------------------
      LOOP:  cpu time    6.9367: real time   11.0182

 eigenvalue-minimisations  :  2608
 total energy-change (2. order) : 0.2697041E-03  (-0.5236588E-04)
 number of electron      17.9999991 magnetization 
 augmentation part       -1.1093904 magnetization 

 Broyden mixing:
  rms(total) = 0.44447E-02    rms(broyden)= 0.44447E-02
  rms(prec ) = 0.51343E-02
  weight for this iteration     100.00

 eigenvalues of (default mixing * dielectric matrix)
  average eigenvalue GAMMA=   1.6298
  3.2437  2.2992  1.8431  0.7172  0.8180  1.3592  1.1279

 Free energy of the ion-electron system (eV)
  ---------------------------------------------------
  alpha Z        PSCENC =        22.86093774
  Ewald energy   TEWEN  =      2543.63114748
  -Hartree energ DENC   =     -3220.69614285
  -exchange      EXHF   =         0.00000000
  -V(xc)+E(xc)   XCENC  =       -60.19519479
  PAW double counting   =      1361.75196823    -1265.14180166
  entropy T*S    EENTRO =        -0.00000000
  eigenvalues    EBANDS =      -133.45698034
  atomic energy  EATOM  =       731.77029636
  Solvation  Ediel_sol  =         0.00000000
  ---------------------------------------------------
  free energy    TOTEN  =       -19.47576984 eV

  energy without entropy =      -19.47576984  energy(sigma->0) =      -19.47576984


--------------------------------------------------------------------------------------------------------




--------------------------------------- Iteration      1(  13)  ---------------------------------------


    POTLOK:  cpu time    0.0474: real time    0.1016
    SETDIJ:  cpu time    0.0147: real time    0.0148
     EDDAV:  cpu time    5.4902: real time    8.8384
       DOS:  cpu time    0.0006: real time    0.0013
    CHARGE:  cpu time    0.1374: real time    0.1705
    MIXING:  cpu time    0.0018: real time    0.0057
    --------------------------------------------
      LOOP:  cpu time    5.6922: real time    9.1331

 eigenvalue-minimisations  :  2320
 total energy-change (2. order) :-0.2025993E-03  (-0.8989636E-05)
 number of electron      17.9999991 magnetization 
 augmentation part       -1.1082429 magnetization 

 Broyden mixing:
  rms(total) = 0.38520E-02    rms(broyden)= 0.38520E-02
  rms(prec ) = 0.40986E-02
  weight for this iteration     100.00

 eigenvalues of (default mixing * dielectric matrix)
  average eigenvalue GAMMA=   1.9152
  4.8425  2.8630  2.3575  1.6723  0.7175  1.0244  1.0244  0.8200

 Free energy of the ion-electron system (eV)
  ---------------------------------------------------
  alpha Z        PSCENC =        22.86093774
  Ewald energy   TEWEN  =      2543.63114748
  -Hartree energ DENC   =     -3221.22129167
  -exchange      EXHF   =         0.00000000
  -V(xc)+E(xc)   XCENC  =       -60.18779038
  PAW double counting   =      1363.83193882    -1267.22867266
  entropy T*S    EENTRO =        -0.00000000
  eigenvalues    EBANDS =      -132.93253813
  atomic energy  EATOM  =       731.77029636
  Solvation  Ediel_sol  =         0.00000000
  ---------------------------------------------------
  free energy    TOTEN  =       -19.47597244 eV

  energy without entropy =      -19.47597244  energy(sigma->0) =      -19.47597244


--------------------------------------------------------------------------------------------------------




--------------------------------------- Iteration      1(  14)  ---------------------------------------


    POTLOK:  cpu time    0.0669: real time    0.1052
    SETDIJ:  cpu time    0.0036: real time    0.0132
     EDDAV:  cpu time    5.3855: real time    8.2370
       DOS:  cpu time    0.0070: real time    0.0189
    CHARGE:  cpu time    0.1205: real time    0.2273
    MIXING:  cpu time    0.0077: real time    0.0159
    --------------------------------------------
      LOOP:  cpu time    5.5912: real time    8.6166

 eigenvalue-minimisations  :  2376
 total energy-change (2. order) :-0.2929768E-03  (-0.3724158E-05)
 number of electron      17.9999991 magnetization 
 augmentation part       -1.1085988 magnetization 

 Broyden mixing:
  rms(total) = 0.14419E-02    rms(broyden)= 0.14419E-02
  rms(prec ) = 0.15399E-02
  weight for this iteration     100.00

 eigenvalues of (default mixing * dielectric matrix)
  average eigenvalue GAMMA=   1.9640
  5.6839  2.5105  2.5105  1.8864  1.5221  0.7185  0.8131  0.9612  1.0698

 Free energy of the ion-electron system (eV)
  ---------------------------------------------------
  alpha Z        PSCENC =        22.86093774
  Ewald energy   TEWEN  =      2543.63114748
  -Hartree energ DENC   =     -3221.65323081
  -exchange      EXHF   =         0.00000000
  -V(xc)+E(xc)   XCENC  =       -60.18787313
  PAW double counting   =      1361.31082822    -1264.70583537
  entropy T*S    EENTRO =        -0.00000000
  eigenvalues    EBANDS =      -132.50253589
  atomic energy  EATOM  =       731.77029636
  Solvation  Ediel_sol  =         0.00000000
  ---------------------------------------------------
  free energy    TOTEN  =       -19.47626541 eV

  energy without entropy =      -19.47626541  energy(sigma->0) =      -19.47626541


--------------------------------------------------------------------------------------------------------




--------------------------------------- Iteration      1(  15)  ---------------------------------------


    POTLOK:  cpu time    0.0414: real time    0.0844
    SETDIJ:  cpu time    0.0056: real time    0.0129
     EDDAV:  cpu time    6.0364: real time    9.2435
       DOS:  cpu time    0.0006: real time    0.0030
    CHARGE:  cpu time    0.1179: real time    0.2401
    MIXING:  cpu time    0.0068: real time    0.0128
    --------------------------------------------
      LOOP:  cpu time    6.2087: real time    9.5968

 eigenvalue-minimisations  :  2576
 total energy-change (2. order) :-0.7778855E-04  (-0.5800722E-06)
 number of electron      17.9999991 magnetization 
 augmentation part       -1.1082157 magnetization 

 Broyden mixing:
  rms(total) = 0.25556E-03    rms(broyden)= 0.25556E-03
  rms(prec ) = 0.38787E-03
  weight for this iteration     100.00

 eigenvalues of (default mixing * dielectric matrix)
  average eigenvalue GAMMA=   2.1034
  6.6028  3.3901  2.3701  2.3701  1.6242  0.7184  0.8131  1.1138  1.0155  1.0155

 Free energy of the ion-electron system (eV)
  ---------------------------------------------------
  alpha Z        PSCENC =        22.86093774
  Ewald energy   TEWEN  =      2543.63114748
  -Hartree energ DENC   =     -3221.75668019
  -exchange      EXHF   =         0.00000000
  -V(xc)+E(xc)   XCENC  =       -60.18690624
  PAW double counting   =      1361.56092745    -1264.95604674
  entropy T*S    EENTRO =        -0.00000000
  eigenvalues    EBANDS =      -132.40001906
  atomic energy  EATOM  =       731.77029636
  Solvation  Ediel_sol  =         0.00000000
  ---------------------------------------------------
  free energy    TOTEN  =       -19.47634320 eV

  energy without entropy =      -19.47634320  energy(sigma->0) =      -19.47634320


--------------------------------------------------------------------------------------------------------




--------------------------------------- Iteration      1(  16)  ---------------------------------------


    POTLOK:  cpu time    0.0475: real time    0.1143
    SETDIJ:  cpu time    0.0026: real time    0.0026
     EDDAV:  cpu time    5.4758: real time    8.1891
       DOS:  cpu time    0.0007: real time    0.0012
    CHARGE:  cpu time    0.1173: real time    0.1744
    MIXING:  cpu time    0.0070: real time    0.0169
    --------------------------------------------
      LOOP:  cpu time    5.6509: real time    8.4986

 eigenvalue-minimisations  :  2360
 total energy-change (2. order) :-0.5925516E-04  (-0.3054107E-06)
 number of electron      17.9999991 magnetization 
 augmentation part       -1.1081895 magnetization 

 Broyden mixing:
  rms(total) = 0.26768E-03    rms(broyden)= 0.26768E-03
  rms(prec ) = 0.30228E-03
  weight for this iteration     100.00

 eigenvalues of (default mixing * dielectric matrix)
  average eigenvalue GAMMA=   2.1206
  6.8176  3.6412  2.5849  2.2443  1.9912  1.5122  0.7182  1.0353  1.0353  0.8193
  0.9268

 Free energy of the ion-electron system (eV)
  ---------------------------------------------------
  alpha Z        PSCENC =        22.86093774
  Ewald energy   TEWEN  =      2543.63114748
  -Hartree energ DENC   =     -3221.79928908
  -exchange      EXHF   =         0.00000000
  -V(xc)+E(xc)   XCENC  =       -60.18750126
  PAW double counting   =      1361.44118213    -1264.83617221
  entropy T*S    EENTRO =        -0.00000000
  eigenvalues    EBANDS =      -132.35700362
  atomic energy  EATOM  =       731.77029636
  Solvation  Ediel_sol  =         0.00000000
  ---------------------------------------------------
  free energy    TOTEN  =       -19.47640246 eV

  energy without entropy =      -19.47640246  energy(sigma->0) =      -19.47640246


--------------------------------------------------------------------------------------------------------




--------------------------------------- Iteration      1(  17)  ---------------------------------------


    POTLOK:  cpu time    0.0509: real time    0.1132
    SETDIJ:  cpu time    0.0075: real time    0.0160
     EDDAV:  cpu time    5.9443: real time    9.5241
       DOS:  cpu time    0.0063: real time    0.0168
    CHARGE:  cpu time    0.1534: real time    0.2218
    MIXING:  cpu time    0.0023: real time    0.0092
    --------------------------------------------
      LOOP:  cpu time    6.1647: real time    9.9011

 eigenvalue-minimisations  :  2264
 total energy-change (2. order) :-0.1414370E-04  (-0.5143155E-07)
 number of electron      17.9999991 magnetization 
 augmentation part       -1.1081679 magnetization 

 Broyden mixing:
  rms(total) = 0.20348E-03    rms(broyden)= 0.20348E-03
  rms(prec ) = 0.22699E-03
  weight for this iteration     100.00

 eigenvalues of (default mixing * dielectric matrix)
  average eigenvalue GAMMA=   2.1593
  7.1511  4.0840  2.8289  2.4183  2.2190  1.6018  0.7184  1.1186  1.0240  1.0240
  0.8151  0.9082

 Free energy of the ion-electron system (eV)
  ---------------------------------------------------
  alpha Z        PSCENC =        22.86093774
  Ewald energy   TEWEN  =      2543.63114748
  -Hartree energ DENC   =     -3221.81771735
  -exchange      EXHF   =         0.00000000
  -V(xc)+E(xc)   XCENC  =       -60.18734297
  PAW double counting   =      1361.64414797    -1265.03912566
  entropy T*S    EENTRO =        -0.00000000
  eigenvalues    EBANDS =      -132.33876017
  atomic energy  EATOM  =       731.77029636
  Solvation  Ediel_sol  =         0.00000000
  ---------------------------------------------------
  free energy    TOTEN  =       -19.47641660 eV

  energy without entropy =      -19.47641660  energy(sigma->0) =      -19.47641660


--------------------------------------------------------------------------------------------------------




--------------------------------------- Iteration      1(  18)  ---------------------------------------


    POTLOK:  cpu time    0.0545: real time    0.1145
    SETDIJ:  cpu time    0.0044: real time    0.0127
     EDDAV:  cpu time    6.6819: real time    9.4944
       DOS:  cpu time    0.0030: real time    0.0156
    CHARGE:  cpu time    0.1224: real time    0.1820
    MIXING:  cpu time    0.0253: real time    0.0610
    --------------------------------------------
      LOOP:  cpu time    6.8916: real time    9.8802

 eigenvalue-minimisations  :  2576
 total energy-change (2. order) :-0.3402851E-05  (-0.7579777E-07)
 number of electron      17.9999991 magnetization 
 augmentation part       -1.1082443 magnetization 

 Broyden mixing:
  rms(total) = 0.62613E-04    rms(broyden)= 0.62613E-04
  rms(prec ) = 0.85526E-04
  weight for this iteration     100.00

 eigenvalues of (default mixing * dielectric matrix)
  average eigenvalue GAMMA=   2.1825
  7.1981  4.2335  2.7885  2.6060  2.1887  2.1887  1.6029  0.7184  0.8147  1.0713
  1.0713  0.9449  0.9449

 Free energy of the ion-electron system (eV)
  ---------------------------------------------------
  alpha Z        PSCENC =        22.86093774
  Ewald energy   TEWEN  =      2543.63114748
  -Hartree energ DENC   =     -3221.82856458
  -exchange      EXHF   =         0.00000000
  -V(xc)+E(xc)   XCENC  =       -60.18737842
  PAW double counting   =      1361.69439169    -1265.08928389
  entropy T*S    EENTRO =        -0.00000000
  eigenvalues    EBANDS =      -132.32796639
  atomic energy  EATOM  =       731.77029636
  Solvation  Ediel_sol  =         0.00000000
  ---------------------------------------------------
  free energy    TOTEN  =       -19.47642000 eV

  energy without entropy =      -19.47642000  energy(sigma->0) =      -19.47642000


--------------------------------------------------------------------------------------------------------




--------------------------------------- Iteration      1(  19)  ---------------------------------------


    POTLOK:  cpu time    0.0652: real time    0.1326
    SETDIJ:  cpu time    0.0071: real time    0.0072
     EDDAV:  cpu time    4.7669: real time    7.6522
       DOS:  cpu time    0.0006: real time    0.0007
    CHARGE:  cpu time    0.1164: real time    0.2272
    MIXING:  cpu time    0.0051: real time    0.0141
    --------------------------------------------
      LOOP:  cpu time    4.9613: real time    8.0367

 eigenvalue-minimisations  :  2152
 total energy-change (2. order) :-0.6535488E-05  (-0.2855021E-07)
 number of electron      17.9999991 magnetization 
 augmentation part       -1.1082682 magnetization 

 Broyden mixing:
  rms(total) = 0.77931E-04    rms(broyden)= 0.77931E-04
  rms(prec ) = 0.85210E-04
  weight for this iteration     100.00

 eigenvalues of (default mixing * dielectric matrix)
  average eigenvalue GAMMA=   2.2317
  7.1486  5.1523  3.2586  2.8721  2.3330  2.2031  1.6204  0.7184  1.1686  1.0458
  1.0458  0.8154  0.9309  0.9309

 Free energy of the ion-electron system (eV)
  ---------------------------------------------------
  alpha Z        PSCENC =        22.86093774
  Ewald energy   TEWEN  =      2543.63114748
  -Hartree energ DENC   =     -3221.84042982
  -exchange      EXHF   =         0.00000000
  -V(xc)+E(xc)   XCENC  =       -60.18739312
  PAW double counting   =      1361.65475114    -1265.04971235
  entropy T*S    EENTRO =        -0.00000000
  eigenvalues    EBANDS =      -132.31602396
  atomic energy  EATOM  =       731.77029636
  Solvation  Ediel_sol  =         0.00000000
  ---------------------------------------------------
  free energy    TOTEN  =       -19.47642654 eV

  energy without entropy =      -19.47642654  energy(sigma->0) =      -19.47642654


--------------------------------------------------------------------------------------------------------




--------------------------------------- Iteration      1(  20)  ---------------------------------------


    POTLOK:  cpu time    0.0741: real time    0.0915
    SETDIJ:  cpu time    0.0037: real time    0.0063
     EDDAV:  cpu time    4.9593: real time    7.6988
       DOS:  cpu time    0.0006: real time    0.0008
    CHARGE:  cpu time    0.1165: real time    0.2009
    MIXING:  cpu time    0.0050: real time    0.0143
    --------------------------------------------
      LOOP:  cpu time    5.1591: real time    8.0100

 eigenvalue-minimisations  :  2112
 total energy-change (2. order) :-0.2232904E-05  (-0.5053986E-08)
 number of electron      17.9999991 magnetization 
 augmentation part       -1.1082513 magnetization 

 Broyden mixing:
  rms(total) = 0.39344E-04    rms(broyden)= 0.39344E-04
  rms(prec ) = 0.43223E-04
  weight for this iteration     100.00

 eigenvalues of (default mixing * dielectric matrix)
  average eigenvalue GAMMA=   2.3399
  6.5958  6.5958  3.4689  3.1083  2.6126  2.2166  2.2166  1.6381  0.7184  1.1107
  1.1107  0.8153  0.9651  0.9651  0.9597

 Free energy of the ion-electron system (eV)
  ---------------------------------------------------
  alpha Z        PSCENC =        22.86093774
  Ewald energy   TEWEN  =      2543.63114748
  -Hartree energ DENC   =     -3221.84450964
  -exchange      EXHF   =         0.00000000
  -V(xc)+E(xc)   XCENC  =       -60.18738716
  PAW double counting   =      1361.63957868    -1265.03456076
  entropy T*S    EENTRO =        -0.00000000
  eigenvalues    EBANDS =      -132.31193147
  atomic energy  EATOM  =       731.77029636
  Solvation  Ediel_sol  =         0.00000000
  ---------------------------------------------------
  free energy    TOTEN  =       -19.47642877 eV

  energy without entropy =      -19.47642877  energy(sigma->0) =      -19.47642877


--------------------------------------------------------------------------------------------------------




--------------------------------------- Iteration      1(  21)  ---------------------------------------


    POTLOK:  cpu time    0.0696: real time    0.1459
    SETDIJ:  cpu time    0.0020: real time    0.0046
     EDDAV:  cpu time    4.8085: real time    8.3467
       DOS:  cpu time    0.0006: real time    0.0034
    CHARGE:  cpu time    0.1225: real time    0.2230
    MIXING:  cpu time    0.0066: real time    0.0186
    --------------------------------------------
      LOOP:  cpu time    5.0098: real time    8.7422

 eigenvalue-minimisations  :  1984
 total energy-change (2. order) :-0.2294579E-05  (-0.7112265E-08)
 number of electron      17.9999991 magnetization 
 augmentation part       -1.1082281 magnetization 

 Broyden mixing:
  rms(total) = 0.16917E-04    rms(broyden)= 0.16917E-04
  rms(prec ) = 0.18492E-04
  weight for this iteration     100.00

 eigenvalues of (default mixing * dielectric matrix)
  average eigenvalue GAMMA=   2.5007
  7.7768  7.7768  4.2856  3.1626  2.6094  2.3094  2.1959  1.6388  1.6388  0.7184
  0.8151  1.1019  1.1019  0.9576  0.9576  0.9657

 Free energy of the ion-electron system (eV)
  ---------------------------------------------------
  alpha Z        PSCENC =        22.86093774
  Ewald energy   TEWEN  =      2543.63114748
  -Hartree energ DENC   =     -3221.84935892
  -exchange      EXHF   =         0.00000000
  -V(xc)+E(xc)   XCENC  =       -60.18736424
  PAW double counting   =      1361.62008726    -1265.01505215
  entropy T*S    EENTRO =        -0.00000000
  eigenvalues    EBANDS =      -132.30712460
  atomic energy  EATOM  =       731.77029636
  Solvation  Ediel_sol  =         0.00000000
  ---------------------------------------------------
  free energy    TOTEN  =       -19.47643107 eV

  energy without entropy =      -19.47643107  energy(sigma->0) =      -19.47643107


--------------------------------------------------------------------------------------------------------




--------------------------------------- Iteration      1(  22)  ---------------------------------------


    POTLOK:  cpu time    0.0460: real time    0.0976
    SETDIJ:  cpu time    0.0033: real time    0.0075
     EDDAV:  cpu time    4.8529: real time    7.8701
       DOS:  cpu time    0.0045: real time    0.0175
    CHARGE:  cpu time    0.1484: real time    0.2266
    MIXING:  cpu time    0.0204: real time    0.0366
    --------------------------------------------
      LOOP:  cpu time    5.0756: real time    8.2558

 eigenvalue-minimisations  :  1896
 total energy-change (2. order) :-0.4245946E-06  (-0.1127783E-08)
 number of electron      17.9999991 magnetization 
 augmentation part       -1.1082330 magnetization 

 Broyden mixing:
  rms(total) = 0.16784E-04    rms(broyden)= 0.16784E-04
  rms(prec ) = 0.17021E-04
  weight for this iteration     100.00

 eigenvalues of (default mixing * dielectric matrix)
  average eigenvalue GAMMA=   2.4943
  8.9899  7.4781  4.4165  3.1465  2.7357  2.2480  2.2480  1.7443  1.7443  0.7184
  1.1354  1.1354  0.8152  0.9730  0.9730  0.9489  0.9524

 Free energy of the ion-electron system (eV)
  ---------------------------------------------------
  alpha Z        PSCENC =        22.86093774
  Ewald energy   TEWEN  =      2543.63114748
  -Hartree energ DENC   =     -3221.84977986
  -exchange      EXHF   =         0.00000000
  -V(xc)+E(xc)   XCENC  =       -60.18737563
  PAW double counting   =      1361.62464540    -1265.01959879
  entropy T*S    EENTRO =        -0.00000000
  eigenvalues    EBANDS =      -132.30670419
  atomic energy  EATOM  =       731.77029636
  Solvation  Ediel_sol  =         0.00000000
  ---------------------------------------------------
  free energy    TOTEN  =       -19.47643149 eV

  energy without entropy =      -19.47643149  energy(sigma->0) =      -19.47643149


--------------------------------------------------------------------------------------------------------




--------------------------------------- Iteration      1(  23)  ---------------------------------------


    POTLOK:  cpu time    0.0441: real time    0.0935
    SETDIJ:  cpu time    0.0047: real time    0.0047
     EDDAV:  cpu time    5.1108: real time    8.5369
       DOS:  cpu time    0.0006: real time    0.0007
    --------------------------------------------
      LOOP:  cpu time    5.1601: real time    8.6358

 eigenvalue-minimisations  :  1952
 total energy-change (2. order) :-0.5595416E-07  (-0.1950565E-09)
 number of electron      17.9999991 magnetization 
 augmentation part       -1.1082330 magnetization 

 Free energy of the ion-electron system (eV)
  ---------------------------------------------------
  alpha Z        PSCENC =        22.86093774
  Ewald energy   TEWEN  =      2543.63114748
  -Hartree energ DENC   =     -3221.84986206
  -exchange      EXHF   =         0.00000000
  -V(xc)+E(xc)   XCENC  =       -60.18737415
  PAW double counting   =      1361.63328531    -1265.02823718
  entropy T*S    EENTRO =        -0.00000000
[...]
  band No.  band energies     occupation 
      1     -14.1318      2.00000
      2     -14.0962      2.00000
      3      -7.1421      2.00000
      4      -6.9999      2.00000
      5      -5.7623      2.00000
      6      -5.2271      2.00000
      7      -5.1858      2.00000
      8      -4.1931      2.00000
      9      -2.0051      2.00000
     10      -0.0057      0.00000
     11       0.4811      0.00000
     12       1.1581      0.00000
     13       2.6592      0.00000
     14       4.5245      0.00000
     15       5.5769      0.00000
     16       6.7552      0.00000

 k-point    48 :       0.4667    0.2667    0.0000
  band No.  band energies     occupation 
      1     -14.2969      2.00000
      2     -14.2015      2.00000
      3      -7.0684      2.00000
      4      -6.9210      2.00000
      5      -5.4773      2.00000
      6      -5.2751      2.00000
      7      -5.0909      2.00000
      8      -3.9403      2.00000
      9      -2.1930      2.00000
     10       0.0058      0.00000
     11       0.5665      0.00000
     12       0.9247      0.00000
     13       2.4772      0.00000
     14       4.8480      0.00000
     15       5.8738      0.00000
     16       6.3202      0.00000

 k-point    49 :      -0.4667    0.2667    0.0000
  band No.  band energies     occupation 
      1     -14.5787      2.00000
      2     -14.3806      2.00000
      3      -7.0399      2.00000
      4      -6.5560      2.00000
      5      -5.5456      2.00000
      6      -5.2661      2.00000
      7      -4.4647      2.00000
      8      -3.6339      2.00000
      9      -2.3634      2.00000
     10      -0.1706      0.00000
     11       0.6964      0.00000
     12       0.7097      0.00000
     13       2.2359      0.00000
     14       5.1595      0.00000
     15       5.6466      0.00000
     16       5.7455      0.00000

 k-point    50 :      -0.4000    0.2667    0.0000
  band No.  band energies     occupation 
      1     -14.9083      2.00000
      2     -14.5893      2.00000
      3      -6.8999      2.00000
      4      -6.1910      2.00000
      5      -5.7120      2.00000
      6      -5.0029      2.00000
      7      -3.7929      2.00000
      8      -3.4397      2.00000
      9      -2.4624      2.00000
     10      -0.3430      0.00000
     11       0.5139      0.00000
     12       0.8067      0.00000
     13       2.0869      0.00000
     14       4.8641      0.00000
     15       5.1547      0.00000
     16       5.6886      0.00000

 k-point    51 :      -0.3333    0.2667    0.0000
  band No.  band energies     occupation 
      1     -15.2229      2.00000
      2     -14.7881      2.00000
      3      -6.7439      2.00000
      4      -5.9014      2.00000
      5      -5.7971      2.00000
      6      -4.4634      2.00000
      7      -3.4606      2.00000
      8      -3.2901      2.00000
      9      -2.6357      2.00000
     10      -0.2901      0.00000
     11       0.3742      0.00000
     12       0.8592      0.00000
     13       2.0361      0.00000
     14       4.3435      0.00000
     15       4.6423      0.00000
     16       5.3865      0.00000

 k-point    52 :      -0.2667    0.2667    0.0000
  band No.  band energies     occupation 
      1     -15.4763      2.00000
      2     -14.9480      2.00000
      3      -6.7018      2.00000
      4      -5.6726      2.00000
      5      -5.6177      2.00000
      6      -3.9275      2.00000
      7      -3.5669      2.00000
      8      -2.9879      2.00000
      9      -2.9121      2.00000
     10      -0.2460      0.00000
     11       0.4321      0.00000
     12       0.7922      0.00000
     13       1.9692      0.00000
     14       3.9725      0.00000
     15       4.2603      0.00000
     16       4.9835      0.00000

 k-point    53 :       0.3333    0.3333    0.0000
  band No.  band energies     occupation 
      1     -14.0708      2.00000
      2     -14.0546      2.00000
      3      -7.2099      2.00000
      4      -6.7070      2.00000
      5      -6.1245      2.00000
      6      -5.3276      2.00000
      7      -5.1611      2.00000
      8      -4.2983      2.00000
      9      -1.9064      2.00000
     10      -0.0852      0.00000
     11       0.3797      0.00000
     12       1.2918      0.00000
     13       2.7830      0.00000
     14       4.8758      0.00000
     15       4.8958      0.00000
     16       7.0088      0.00000

 k-point    54 :       0.4000    0.3333    0.0000
  band No.  band energies     occupation 
      1     -14.1319      2.00000
      2     -14.0963      2.00000
      3      -7.1420      2.00000
      4      -6.9999      2.00000
      5      -5.7623      2.00000
      6      -5.2270      2.00000
      7      -5.1857      2.00000
      8      -4.1932      2.00000
      9      -2.0052      2.00000
     10      -0.0057      0.00000
     11       0.4812      0.00000
     12       1.1581      0.00000
     13       2.6593      0.00000
     14       4.5243      0.00000
     15       5.5772      0.00000
     16       6.7551      0.00000

 k-point    55 :       0.4667    0.3333    0.0000
  band No.  band energies     occupation 
      1     -14.3013      2.00000
      2     -14.2095      2.00000
      3      -7.2691      2.00000
      4      -6.9651      2.00000
      5      -5.6330      2.00000
      6      -5.1689      2.00000
      7      -4.6216      2.00000
      8      -3.9760      2.00000
      9      -2.1839      2.00000
     10       0.0615      0.00000
     11       0.7555      0.00000
     12       0.8837      0.00000
     13       2.3650      0.00000
     14       4.4694      0.00000
     15       6.2447      0.00000
     16       6.2880      0.00000

 k-point    56 :      -0.4667    0.3333    0.0000
  band No.  band energies     occupation 
      1     -14.5421      2.00000
      2     -14.3656      2.00000
      3      -7.3332      2.00000
      4      -6.7379      2.00000
      5      -5.7126      2.00000
      6      -4.9909      2.00000
      7      -3.8523      2.00000
      8      -3.8023      2.00000
      9      -2.3119      2.00000
     10      -0.0384      0.00000
     11       0.6409      0.00000
     12       1.0861      0.00000
     13       2.0998      0.00000
     14       4.6499      0.00000
     15       5.6641      0.00000
     16       5.7575      0.00000

 k-point    57 :      -0.4000    0.3333    0.0000
  band No.  band energies     occupation 
      1     -14.8054      2.00000
      2     -14.5315      2.00000
      3      -7.2142      2.00000
      4      -6.4965      2.00000
      5      -5.8079      2.00000
      6      -4.6232      2.00000
      7      -3.7885      2.00000
      8      -3.2935      2.00000
      9      -2.4237      2.00000
     10      -0.0872      0.00000
     11       0.4039      0.00000
     12       1.2391      0.00000
     13       2.0686      0.00000
     14       4.8733      0.00000
     15       5.1436      0.00000
     16       5.2481      0.00000

 k-point    58 :      -0.3333    0.3333    0.0000
  band No.  band energies     occupation 
      1     -15.0444      2.00000
      2     -14.6791      2.00000
      3      -6.9811      2.00000
      4      -6.2255      2.00000
      5      -5.8507      2.00000
      6      -4.2319      2.00000
      7      -3.8709      2.00000
      8      -3.0929      2.00000
      9      -2.5932      2.00000
     10      -0.0762      0.00000
     11       0.2753      0.00000
     12       1.1563      0.00000
     13       2.0889      0.00000
     14       4.5483      0.00000
     15       4.8806      0.00000
     16       5.4356      0.00000

 k-point    59 :       0.4000    0.4000    0.0000
  band No.  band energies     occupation 
      1     -14.1961      2.00000
      2     -14.1453      2.00000
      3      -7.3576      2.00000
      4      -7.1126      2.00000
      5      -5.7087      2.00000
      6      -5.0982      2.00000
      7      -4.6409      2.00000
      8      -4.1328      2.00000
      9      -2.0799      2.00000
     10       0.1091      0.00000
     11       0.7710      0.00000
     12       1.0044      0.00000
     13       2.4220      0.00000
     14       4.1359      0.00000
     15       6.4214      0.00000
     16       6.5415      0.00000

 k-point    60 :       0.4667    0.4000    0.0000
  band No.  band energies     occupation 
      1     -14.3180      2.00000
      2     -14.2320      2.00000
      3      -7.6173      2.00000
      4      -7.0463      2.00000
      5      -5.7628      2.00000
      6      -4.9283      2.00000
      7      -4.0466      2.00000
      8      -3.8239      2.00000
      9      -2.1724      2.00000
     10       0.1832      0.00000
     11       0.7681      0.00000
     12       1.2551      0.00000
     13       2.0896      0.00000
     14       3.9945      0.00000
     15       6.2065      0.00000
     16       6.3120      0.00000

 k-point    61 :      -0.4667    0.4000    0.0000
  band No.  band energies     occupation 
      1     -14.4800      2.00000
      2     -14.3380      2.00000
      3      -7.6668      2.00000
      4      -6.9304      2.00000
      5      -5.8237      2.00000
      6      -4.6808      2.00000
      7      -4.0166      2.00000
      8      -3.1593      2.00000
      9      -2.2687      2.00000
     10       0.1666      0.00000
     11       0.5242      0.00000
     12       1.5775      0.00000
     13       2.0044      0.00000
     14       4.1286      0.00000
     15       5.5855      0.00000
     16       5.6641      0.00000

 k-point    62 :      -0.4000    0.4000    0.0000
  band No.  band energies     occupation 
      1     -14.6535      2.00000
      2     -14.4435      2.00000
      3      -7.5120      2.00000
      4      -6.7499      2.00000
      5      -5.8456      2.00000
      6      -4.4486      2.00000
      7      -4.0471      2.00000
      8      -2.9596      2.00000
      9      -2.3740      2.00000
     10       0.2287      0.00000
     11       0.2492      0.00000
     12       1.4869      0.00000
     13       2.1520      0.00000
     14       4.4807      0.00000
     15       5.1429      0.00000
     16       5.2967      0.00000

 k-point    63 :       0.4667    0.4667    0.0000
  band No.  band energies     occupation 
      1     -14.3540      2.00000
      2     -14.2649      2.00000
      3      -7.8447      2.00000
      4      -7.0891      2.00000
      5      -5.8427      2.00000
      6      -4.6906      2.00000
      7      -4.1007      2.00000
      8      -3.0868      2.00000
      9      -2.2024      2.00000
     10       0.2663      0.00000
     11       0.6204      0.00000
     12       1.7993      0.00000
     13       1.8746      0.00000
     14       3.7474      0.00000
     15       5.8851      0.00000
     16       5.8993      0.00000

 k-point    64 :      -0.4667    0.4667    0.0000
  band No.  band energies     occupation 
      1     -14.4112      2.00000
      2     -14.3024      2.00000
      3      -7.8612      2.00000
      4      -7.0537      2.00000
      5      -5.8664      2.00000
      6      -4.5608      2.00000
      7      -4.1242      2.00000
      8      -2.7749      2.00000
      9      -2.2735      2.00000
     10       0.2823      0.00000
     11       0.4972      0.00000
     12       1.6721      0.00000
     13       2.1774      0.00000
     14       3.7956      0.00000
     15       5.4429      0.00000
     16       5.5554      0.00000


--------------------------------------------------------------------------------------------------------


 soft charge-density along one line, spin component           1
         0         1         2         3         4         5         6         7         8         9
 total charge-density along one line
 
 pseudopotential strength for first ion, spin component:           1
 30.643  34.868   0.000   0.079  -0.000   0.000   0.114  -0.000
 34.868  39.682   0.000   0.090  -0.000   0.000   0.129  -0.000
  0.000   0.000   7.181  -0.000   0.000  10.125  -0.000   0.000
  0.079   0.090  -0.000   7.177   0.000  -0.000  10.118   0.000
 -0.000  -0.000   0.000   0.000   7.181   0.000   0.000  10.125
  0.000   0.000  10.125  -0.000   0.000  14.308  -0.000   0.000
  0.114   0.129  -0.000  10.118   0.000  -0.000  14.299   0.000
 -0.000  -0.000   0.000   0.000  10.125   0.000   0.000  14.308
  0.000   0.000   0.000   0.000   0.001   0.000   0.000   0.001
 -0.000  -0.000   0.022  -0.000   0.000   0.032  -0.000   0.000
 -0.004  -0.005   0.000   0.026  -0.000   0.000   0.037   0.000
  0.000   0.000   0.000   0.000   0.022   0.000   0.000   0.032
 -0.000  -0.000   0.001  -0.000   0.000   0.001  -0.000   0.000
 total augmentation occupancy for first ion, spin component:           1
  6.339  -3.503   0.000   2.027  -0.000  -0.000  -0.447   0.000   0.000   0.000  -0.005  -0.000  -0.000
 -3.503   2.759  -0.000  -1.889   0.000   0.000   0.354  -0.000  -0.000  -0.000   0.011   0.000   0.000
  0.000  -0.000   2.458  -0.000  -0.000  -0.453  -0.000   0.000   0.000   0.171   0.000  -0.000   0.050
  2.027  -1.889  -0.000   2.730   0.000   0.000  -0.511  -0.000  -0.000  -0.000   0.106   0.000   0.000
 -0.000   0.000  -0.000   0.000   2.458   0.000   0.000  -0.453   0.050  -0.000  -0.000   0.171   0.000
 -0.000   0.000  -0.453   0.000   0.000   0.112   0.000   0.000   0.000  -0.027  -0.000   0.000  -0.004
 -0.447   0.354  -0.000  -0.511   0.000   0.000   0.114  -0.000   0.000  -0.000  -0.033   0.000  -0.000
  0.000  -0.000   0.000  -0.000  -0.453   0.000  -0.000   0.112  -0.004   0.000   0.000  -0.027   0.000
  0.000  -0.000   0.000  -0.000   0.050   0.000   0.000  -0.004   0.020   0.000  -0.000  -0.001  -0.000
  0.000  -0.000   0.171  -0.000  -0.000  -0.027  -0.000   0.000   0.000   0.021  -0.000   0.000  -0.001
 -0.005   0.011   0.000   0.106  -0.000  -0.000  -0.033   0.000  -0.000  -0.000   0.022   0.000   0.000
 -0.000   0.000  -0.000   0.000   0.171   0.000   0.000  -0.027  -0.001   0.000   0.000   0.021   0.000
 -0.000   0.000   0.050   0.000   0.000  -0.004  -0.000   0.000  -0.000  -0.001   0.000   0.000   0.020


------------------------ aborting loop because EDIFF is reached ----------------------------------------


    CHARGE:  cpu time    0.1282: real time    0.2377
    FORLOC:  cpu time    0.0030: real time    0.0144
    FORNL :  cpu time    0.5604: real time    0.7166
    STRESS:  cpu time    1.7455: real time    2.7332
    FORCOR:  cpu time    0.0439: real time    0.1041
    FORHAR:  cpu time    0.0188: real time    0.0387
    MIXING:  cpu time    0.0081: real time    0.0146
    OFIELD:  cpu time    0.0000: real time    0.0001

  FORCE on cell =-STRESS in cart. coord.  units (eV):
  Direction    XX          YY          ZZ          XY          YZ          ZX
  --------------------------------------------------------------------------------------
  Alpha Z    22.86094    22.86094    22.86094
  Ewald    2945.80799  2945.81275 -3500.40127     0.00411    -0.00000     0.00000
  Hartree  3050.74562  3050.74713 -3024.96691     0.00131     0.00000    -0.00000
  E(xc)     -72.97861   -72.97870   -73.77567    -0.00008    -0.00000     0.00000
  Local   -6230.50749 -6230.51376  6289.37843    -0.00542     0.00000    -0.00000
  n-local    64.08461    63.75056    69.81676     0.09643     0.00000     0.00000
  augment     1.21006     1.21019     0.17674     0.00011    -0.00000     0.00000
  Kinetic   218.52086   225.45318   216.90271    -1.99927    -0.00000    -0.00000
  Fock        0.00000     0.00000     0.00000     0.00000     0.00000     0.00000
  -------------------------------------------------------------------------------------
  Total       3.04222     3.04404    -0.00826     0.00157     0.00000    -0.00000
  in kB      26.84009    26.85613    -0.07289     0.01389     0.00000    -0.00000
  external pressure =       17.87 kB  Pullay stress =        0.00 kB


 VOLUME and BASIS-vectors are now :
 -----------------------------------------------------------------------------
  energy-cutoff  :      450.00
  volume of cell :      181.60
      direct lattice vectors                 reciprocal lattice vectors
     3.201387405  0.000000000  0.000000000     0.312364570  0.180364178  0.000000000
    -1.600829558  2.772404380  0.000000000     0.000000000  0.360697742  0.000000000
     0.000000000  0.000000000 20.460814476     0.000000000  0.000000000  0.048873910

  length of vectors
     3.201387405  3.201387405 20.460814476     0.360697742  0.360697742  0.048873910


 FORCES acting on ions
    electron-ion (+dipol)            ewald-force                    non-local-force                 convergence-correction
 -----------------------------------------------------------------------------------------------
   0.197E-02 -.113E-02 0.528E+03   -.197E-02 0.114E-02 -.530E+03   -.492E-04 0.284E-04 0.239E+01   0.366E-04 -.211E-04 -.129E-02
   0.197E-02 -.113E-02 -.528E+03   -.197E-02 0.114E-02 0.530E+03   -.492E-04 0.284E-04 -.239E+01   0.366E-04 -.211E-04 0.129E-02
   -.396E-02 0.228E-02 -.865E-05   0.395E-02 -.228E-02 -.272E-05   -.784E-04 0.453E-04 0.000E+00   0.180E-03 -.104E-03 0.148E-06
 -----------------------------------------------------------------------------------------------
   -.249E-04 0.129E-04 -.234E-03   -.146E-13 0.418E-14 -.114E-12   -.177E-03 0.102E-03 0.000E+00   0.253E-03 -.146E-03 0.354E-06
 
 
 POSITION                                       TOTAL-FORCE (eV/Angst)
 -----------------------------------------------------------------------------------
      1.60069      0.92411      1.65253        -0.000040      0.000023      0.000597
      1.60069      0.92411      5.07788        -0.000040      0.000023     -0.000597
     -0.00004      1.84824      3.36520         0.000080     -0.000046      0.000000
 -----------------------------------------------------------------------------------
    total drift:                                0.000051     -0.000031     -0.000233


--------------------------------------------------------------------------------------------------------



  FREE ENERGIE OF THE ION-ELECTRON SYSTEM (eV)
  ---------------------------------------------------
  free  energy   TOTEN  =       -19.86418269 eV

  energy  without entropy=      -19.86418269  energy(sigma->0) =      -19.86418269
 
 d Force = 0.3604382E-07[ 0.582E-08, 0.663E-07]  d Energy = 0.4698154E-07-0.109E-07
 d Force =-0.1153949E-03[-0.115E-03,-0.115E-03]  d Ewald  =-0.1153949E-03 0.150E-10


--------------------------------------------------------------------------------------------------------


    POTLOK:  cpu time    0.0566: real time    0.1170


--------------------------------------------------------------------------------------------------------




--------------------------------------------------------------------------------------------------------


  
 reached required accuracy - stopping structural energy minimisation
 writing wavefunctions
     LOOP+:  cpu time   13.8639: real time   21.0230
    4ORBIT:  cpu time    0.0000: real time    0.0000

 total amount of memory used by VASP MPI-rank0   128573. kBytes
=======================================================================

   base      :      30000. kBytes
   nonl-proj :      74067. kBytes
   fftplans  :       2515. kBytes
   grid      :       5349. kBytes
   one-center:         46. kBytes
   wavefun   :      16596. kBytes
 
  
  
 General timing and accounting informations for this job:
 ========================================================
  
                  Total CPU time used (sec):      313.317
                            User time (sec):      287.152
                          System time (sec):       26.165
                         Elapsed time (sec):      500.992
  
                   Maximum memory used (kb):      138472.
                   Average memory used (kb):           0.
  
                          Minor page faults:        54825
                          Major page faults:          242
                 Voluntary context switches:       201289
