 vasp.5.4.4.18Apr17-6-g9f103f2a35 (build Oct 31 2018 19:59:33) complex          
  
 executed on             LinuxIFC date 2020.08.08  12:24:44
 running on   96 total cores
 distrk:  each k-point on   96 cores,    1 groups
 distr:  one band on NCORES_PER_BAND=  24 cores,    4 groups


--------------------------------------------------------------------------------------------------------


 INCAR:
 POTCAR:    PAW_PBE Se 06Sep2000                  
 POTCAR:    PAW_PBE Mo 08Apr2002                  
 POTCAR:    PAW_PBE V 08Apr2002                   

 ----------------------------------------------------------------------------- 
|                                                                             |
|           W    W    AA    RRRRR   N    N  II  N    N   GGGG   !!!           |
|           W    W   A  A   R    R  NN   N  II  NN   N  G    G  !!!           |
|           W    W  A    A  R    R  N N  N  II  N N  N  G       !!!           |
|           W WW W  AAAAAA  RRRRR   N  N N  II  N  N N  G  GGG   !            |
|           WW  WW  A    A  R   R   N   NN  II  N   NN  G    G                |
|           W    W  A    A  R    R  N    N  II  N    N   GGGG   !!!           |
|                                                                             |
|      For optimal performance we recommend to set                            |
|        NCORE= 4 - approx SQRT( number of cores)                             |
|      NCORE specifies how many cores store one orbital (NPAR=cpu/NCORE).     |
|      This setting can  greatly improve the performance of VASP for DFT.     |
|      The default,   NCORE=1            might be grossly inefficient         |
|      on modern multi-core architectures or massively parallel machines.     |
|      Do your own testing !!!!                                               |
|      Unfortunately you need to use the default for GW and RPA calculations. |
|      (for HF NCORE is supported but not extensively tested yet)             |
|                                                                             |
 ----------------------------------------------------------------------------- 

 POTCAR:    PAW_PBE Se 06Sep2000                  
   VRHFIN =Se: s2p4                                                             
   LEXCH  = PE                                                                  
   EATOM  =   257.1286 eV,   18.8984 Ry                                         
                                                                                
   TITEL  = PAW_PBE Se 06Sep2000                                                
   LULTRA =        F    use ultrasoft PP ?                                      
   IUNSCR =        1    unscreen: 0-lin 1-nonlin 2-no                           
   RPACOR =    1.900    partial core radius                                     
   POMASS =   78.960; ZVAL   =    6.000    mass and valenz                      
   RCORE  =    2.100    outmost cutoff radius                                   
   RWIGS  =    2.200; RWIGS  =    1.164    wigner-seitz radius (au A)           
   ENMAX  =  211.555; ENMIN  =  158.666 eV                                      
   ICORE  =        3    local potential                                         
   LCOR   =        T    correct aug charges                                     
   LPAW   =        T    paw PP                                                  
   EAUG   =  446.842                                                            
   DEXC   =    0.000                                                            
   RMAX   =    2.147    core radius for proj-oper                               
   RAUG   =    1.300    factor for augmentation sphere                          
   RDEP   =    2.177    radius for radial grids                                 
   RDEPT  =    1.928    core radius for aug-charge                              
                                                                                
   Atomic configuration                                                         
   10 entries                                                                   
     n  l   j            E        occ.                                          
     1  0  0.50    -12503.4787   2.0000                                         
     2  0  0.50     -1606.9547   2.0000                                         
     2  1  1.50     -1413.3140   6.0000                                         
     3  0  0.50      -213.4885   2.0000                                         
     3  1  1.50      -152.9538   6.0000                                         
     3  2  2.50       -53.1221  10.0000                                         
     4  0  0.50       -17.2865   2.0000                                         
     4  1  0.50        -6.5110   4.0000                                         
     4  2  2.50        -6.8029   0.0000                                         
     4  3  2.50        -6.8029   0.0000                                         
   Description                                                                  
     l       E           TYP  RCUT    TYP  RCUT                                 
     0    -17.2865377     23  2.100                                             
     0    -15.3094411     23  2.100                                             
     1     -6.5110275     23  2.100                                             
     1     -0.0695192     23  2.100                                             
     2     -6.8029130     23  2.100                                             
     3     -1.3605826      7  2.100                                             
  local pseudopotential read in
  partial core-charges read in
  partial kinetic energy density read in
  atomic valenz-charges read in
  non local Contribution for L=           0  read in
    real space projection operators read in
  non local Contribution for L=           0  read in
    real space projection operators read in
  non local Contribution for L=           1  read in
    real space projection operators read in
  non local Contribution for L=           1  read in
    real space projection operators read in
  non local Contribution for L=           2  read in
    real space projection operators read in
    PAW grid and wavefunctions read in
 
   number of l-projection  operators is LMAX  =           5
   number of lm-projection operators is LMMAX =          13
 
 POTCAR:    PAW_PBE Mo 08Apr2002                  
   VRHFIN =Mo: 4p5s4d                                                           
   LEXCH  = PE                                                                  
   EATOM  =   217.5176 eV,   15.9871 Ry                                         
                                                                                
   TITEL  = PAW_PBE Mo 08Apr2002                                                
   LULTRA =        F    use ultrasoft PP ?                                      
   IUNSCR =        1    unscreen: 0-lin 1-nonlin 2-no                           
   RPACOR =    2.200    partial core radius                                     
   POMASS =   95.940; ZVAL   =    6.000    mass and valenz                      
   RCORE  =    2.750    outmost cutoff radius                                   
   RWIGS  =    2.750; RWIGS  =    1.455    wigner-seitz radius (au A)           
   ENMAX  =  224.584; ENMIN  =  168.438 eV                                      
   RCLOC  =    2.111    cutoff for local pot                                    
   LCOR   =        T    correct aug charges                                     
   LPAW   =        T    paw PP                                                  
   EAUG   =  345.278                                                            
   DEXC   =    0.000                                                            
   RMAX   =    2.821    core radius for proj-oper                               
   RAUG   =    1.300    factor for augmentation sphere                          
   RDEP   =    2.815    radius for radial grids                                 
   RDEPT  =    2.211    core radius for aug-charge                              
                                                                                
   Atomic configuration                                                         
   12 entries                                                                   
     n  l   j            E        occ.                                          
     1  0  0.50    -19819.0341   2.0000                                         
     2  0  0.50     -2799.0127   2.0000                                         
     2  1  1.50     -2502.0276   6.0000                                         
     3  0  0.50      -476.4448   2.0000                                         
     3  1  1.50      -379.1496   6.0000                                         
     3  2  2.50      -220.9367  10.0000                                         
     4  0  0.50       -64.3378   2.0000                                         
     4  1  1.50       -38.4773   6.0000                                         
     4  2  2.50        -3.7535   5.0000                                         
     5  0  0.50        -4.0862   1.0000                                         
     5  1  0.50        -2.7701   0.0000                                         
     4  3  2.50        -1.3606   0.0000                                         
   Description                                                                  
     l       E           TYP  RCUT    TYP  RCUT                                 
     2     -3.7534765     23  2.500                                             
     2     -5.1140591     23  2.500                                             
     0     -4.0861560     23  2.600                                             
     0     13.6058260     23  2.600                                             
     1      5.4423304     23  2.750                                             
     1     27.2116520     23  2.750                                             
  local pseudopotential read in
  partial core-charges read in
  partial kinetic energy density read in
  atomic valenz-charges read in
  non local Contribution for L=           2  read in
    real space projection operators read in
  non local Contribution for L=           2  read in
    real space projection operators read in
  non local Contribution for L=           0  read in
    real space projection operators read in
  non local Contribution for L=           0  read in
    real space projection operators read in
  non local Contribution for L=           1  read in
    real space projection operators read in
  non local Contribution for L=           1  read in
    real space projection operators read in
    PAW grid and wavefunctions read in
 
   number of l-projection  operators is LMAX  =           6
   number of lm-projection operators is LMMAX =          18
 
 POTCAR:    PAW_PBE V 08Apr2002                   
   VRHFIN =V: p6 d4 s1                                                          
   LEXCH  = PE                                                                  
   EATOM  =   170.8679 eV,   12.5584 Ry                                         
                                                                                
   TITEL  = PAW_PBE V 08Apr2002                                                 
   LULTRA =        F    use ultrasoft PP ?                                      
   IUNSCR =        1    unscreen: 0-lin 1-nonlin 2-no                           
   RPACOR =    2.000    partial core radius                                     
   POMASS =   50.941; ZVAL   =    5.000    mass and valenz                      
   RCORE  =    2.700    outmost cutoff radius                                   
   RWIGS  =    2.500; RWIGS  =    1.323    wigner-seitz radius (au A)           
   ENMAX  =  192.543; ENMIN  =  144.408 eV                                      
   RCLOC  =    1.779    cutoff for local pot                                    
   LCOR   =        T    correct aug charges                                     
   LPAW   =        T    paw PP                                                  
   EAUG   =  358.662                                                            
   DEXC   =    0.000                                                            
   RMAX   =    2.768    core radius for proj-oper                               
   RAUG   =    1.300    factor for augmentation sphere                          
   RDEP   =    2.762    radius for radial grids                                 
   RDEPT  =    2.240    core radius for aug-charge                              
                                                                                
   Atomic configuration                                                         
    9 entries                                                                   
     n  l   j            E        occ.                                          
     1  0  0.50     -5360.7193   2.0000                                         
     2  0  0.50      -598.4546   2.0000                                         
     2  1  1.50      -499.0155   6.0000                                         
     3  0  0.50       -66.5711   2.0000                                         
     3  1  1.50       -40.5282   6.0000                                         
     3  2  2.50        -2.4291   4.0000                                         
     4  0  0.50        -3.8743   1.0000                                         
     4  1  0.50        -2.7212   0.0000                                         
     4  3  2.50        -1.3606   0.0000                                         
   Description                                                                  
     l       E           TYP  RCUT    TYP  RCUT                                 
     2     -2.4290901     23  2.700                                             
     2     -3.7896727     23  2.700                                             
     0     -3.8742752     23  2.700                                             
     0     27.2116520     23  2.700                                             
     1     -2.7211652     23  2.700                                             
     1     27.2116520     23  2.700                                             
  local pseudopotential read in
  partial core-charges read in
  partial kinetic energy density read in
  atomic valenz-charges read in
  non local Contribution for L=           2  read in
    real space projection operators read in
  non local Contribution for L=           2  read in
    real space projection operators read in
  non local Contribution for L=           0  read in
    real space projection operators read in
  non local Contribution for L=           0  read in
    real space projection operators read in
  non local Contribution for L=           1  read in
    real space projection operators read in
  non local Contribution for L=           1  read in
    real space projection operators read in
    PAW grid and wavefunctions read in
 
   number of l-projection  operators is LMAX  =           6
   number of lm-projection operators is LMMAX =          18
 
 Optimization of the real space projectors (new method)

 maximal supplied QI-value         = 17.95
 optimisation between [QCUT,QGAM] = [ 10.77, 21.72] = [ 32.49,132.14] Ry 
 Optimized for a Real-space Cutoff    1.30 Angstroem

   l    n(q)    QCUT    max X(q) W(low)/X(q) W(high)/X(q)  e(spline) 
   0      8    10.771   133.320    0.55E-04    0.13E-03    0.56E-07
   0      8    10.771   111.601    0.57E-04    0.14E-03    0.58E-07
   1      8    10.771    47.222    0.33E-03    0.10E-03    0.79E-07
   1      8    10.771    33.775    0.32E-03    0.10E-03    0.75E-07
   2      7    10.771     3.720    0.49E-04    0.11E-03    0.55E-07
 Optimization of the real space projectors (new method)

 maximal supplied QI-value         = 13.61
 optimisation between [QCUT,QGAM] = [ 10.75, 21.63] = [ 32.35,131.06] Ry 
 Optimized for a Real-space Cutoff    1.65 Angstroem

   l    n(q)    QCUT    max X(q) W(low)/X(q) W(high)/X(q)  e(spline) 
   2     10    10.749    80.908    0.28E-03    0.26E-03    0.46E-06
   2     10    10.749    79.000    0.28E-03    0.26E-03    0.46E-06
   0     11    10.749    52.066    0.34E-04    0.39E-04    0.86E-07
   0     11    10.749    24.514    0.28E-04    0.33E-04    0.71E-07
   1     10    10.749    16.033    0.14E-03    0.54E-05    0.21E-06
   1     10    10.749    11.179    0.11E-03    0.50E-05    0.16E-06
 Optimization of the real space projectors (new method)

 maximal supplied QI-value         = 13.98
 optimisation between [QCUT,QGAM] = [ 10.77, 21.68] = [ 32.47,131.56] Ry 
 Optimized for a Real-space Cutoff    1.55 Angstroem

   l    n(q)    QCUT    max X(q) W(low)/X(q) W(high)/X(q)  e(spline) 
   2      9    10.768    96.114    0.48E-03    0.39E-03    0.79E-06
   2      9    10.768    88.986    0.49E-03    0.39E-03    0.80E-06
   0     10    10.768    20.919    0.11E-03    0.11E-03    0.19E-06
   0     10    10.768     9.593    0.83E-04    0.81E-04    0.15E-06
   1     10    10.768    11.615    0.17E-03    0.42E-04    0.21E-06
   1     10    10.768     7.031    0.12E-03    0.37E-04    0.15E-06
  PAW_PBE Se 06Sep2000                  :
 energy of atom  1       EATOM= -257.1286
 kinetic energy error for atom=    0.0011 (will be added to EATOM!!)
  PAW_PBE Mo 08Apr2002                  :
 energy of atom  2       EATOM= -217.5176
 kinetic energy error for atom=    0.0023 (will be added to EATOM!!)
  PAW_PBE V 08Apr2002                   :
 energy of atom  3       EATOM= -170.8679
 kinetic energy error for atom=    0.0006 (will be added to EATOM!!)
 
 
 POSCAR: Mo1Se2                                  
  positions in direct lattice
  velocities in cartesian coordinates
 exchange correlation table for  LEXCH =        8
   RHO(1)=    0.500       N(1)  =     2000
   RHO(2)=  100.500       N(2)  =     4000
 


--------------------------------------------------------------------------------------------------------


 ion  position               nearest neighbor table
   1  0.083  0.167  0.433-  34 2.54  33 2.54  43 2.55
   2  0.083  0.416  0.433-  35 2.54  44 2.55  34 2.55
   3  0.083  0.666  0.433-  45 2.54  35 2.54  36 2.55
   4  0.084  0.917  0.433-  33 2.54  46 2.54  36 2.55
   5  0.336  0.170  0.435-  47 2.52  33 2.54  37 2.55
   6  0.335  0.416  0.434-  47 2.46  38 2.55  34 2.55
   7  0.334  0.666  0.433-  38 2.54  35 2.54  39 2.55
   8  0.332  0.915  0.432-  37 2.53  36 2.54  39 2.54
   9  0.584  0.170  0.435-  48 2.52  40 2.54  37 2.55
  10  0.582  0.414  0.437-  48 2.51  47 2.51  41 2.54
  11  0.583  0.667  0.433-  41 2.54  38 2.54  42 2.54
  12  0.583  0.917  0.433-  40 2.54  42 2.54  39 2.55
  13  0.833  0.167  0.433-  44 2.54  40 2.54  43 2.55
  14  0.831  0.416  0.434-  48 2.46  45 2.55  44 2.55
  15  0.833  0.667  0.432-  41 2.54  45 2.54  46 2.54
  16  0.833  0.916  0.434-  42 2.55  46 2.55  43 2.55
  17  0.083  0.167  0.600-  34 2.54  33 2.54  43 2.55
  18  0.083  0.416  0.599-  35 2.54  44 2.55  34 2.55
  19  0.083  0.666  0.599-  45 2.54  35 2.54  36 2.55
  20  0.084  0.917  0.600-  33 2.54  46 2.54  36 2.55
  21  0.336  0.170  0.597-  47 2.52  33 2.54  37 2.55
  22  0.335  0.416  0.599-  47 2.46  38 2.55  34 2.55
  23  0.334  0.666  0.599-  38 2.54  35 2.54  39 2.55
  24  0.332  0.915  0.600-  37 2.53  36 2.54  39 2.54
  25  0.584  0.170  0.597-  48 2.52  40 2.54  37 2.55
  26  0.582  0.414  0.596-  48 2.51  47 2.51  41 2.54
  27  0.583  0.667  0.600-  41 2.54  38 2.54  42 2.54
  28  0.583  0.917  0.600-  40 2.54  42 2.54  39 2.55
  29  0.833  0.167  0.600-  44 2.54  40 2.54  43 2.55
  30  0.831  0.416  0.599-  48 2.46  45 2.55  44 2.55
  31  0.833  0.667  0.600-  41 2.54  45 2.54  46 2.54
  32  0.833  0.916  0.599-  42 2.55  46 2.55  43 2.55
  33  0.166  0.083  0.516-   1 2.54  17 2.54   4 2.54  20 2.54   5 2.54  21 2.54  34 3.31  43 3.32
                            46 3.33  36 3.34  37 3.35
  34  0.166  0.332  0.516-   1 2.54  17 2.54   2 2.55  18 2.55   6 2.55  22 2.55  47 3.27  33 3.31
                            43 3.31  44 3.34  35 3.34  38 3.35
  35  0.166  0.583  0.516-   2 2.54  18 2.54   7 2.54  23 2.54   3 2.54  19 2.54  39 3.34  36 3.34
                            34 3.34  44 3.34  38 3.35  45 3.35
  36  0.167  0.834  0.516-   8 2.54  24 2.54   4 2.55  20 2.55   3 2.55  19 2.55  37 3.27  39 3.33
                            46 3.33  33 3.34  35 3.34  45 3.34
  37  0.414  0.078  0.516-   8 2.53  24 2.53   5 2.55  21 2.55   9 2.55  25 2.55  39 3.27  36 3.27
                            40 3.35  33 3.35
  38  0.418  0.584  0.516-  11 2.54  27 2.54   7 2.54  23 2.54   6 2.55  22 2.55  47 3.26  42 3.31
                            41 3.32  39 3.34  35 3.35  34 3.35
  39  0.417  0.834  0.516-   8 2.54  24 2.54  12 2.55  28 2.55   7 2.55  23 2.55  37 3.27  36 3.33
                            42 3.33  40 3.34  35 3.34  38 3.34
  40  0.668  0.083  0.516-  13 2.54  29 2.54  12 2.54  28 2.54   9 2.54  25 2.54  44 3.31  43 3.32
                            42 3.33  39 3.34  37 3.35
  41  0.668  0.587  0.516-  15 2.54  31 2.54  11 2.54  27 2.54  10 2.54  26 2.54  46 3.30  42 3.30
                            45 3.32  38 3.32
  42  0.665  0.833  0.516-  12 2.54  28 2.54  11 2.54  27 2.54  16 2.55  32 2.55  41 3.30  38 3.31
                            39 3.33  40 3.33  43 3.35  46 3.35
  43  0.917  0.084  0.516-   1 2.55  17 2.55  13 2.55  29 2.55  16 2.55  32 2.55  34 3.31  44 3.31
                            40 3.32  33 3.32  42 3.35  46 3.35
  44  0.916  0.332  0.516-  13 2.54  29 2.54   2 2.55  18 2.55  14 2.55  30 2.55  48 3.27  40 3.31
                            43 3.31  34 3.34  35 3.34  45 3.35
  45  0.916  0.584  0.516-  15 2.54  31 2.54   3 2.54  19 2.54  14 2.55  30 2.55  48 3.26  46 3.31
                            41 3.32  36 3.34  35 3.35  44 3.35
  46  0.917  0.833  0.516-   4 2.54  20 2.54  15 2.54  31 2.54  16 2.55  32 2.55  41 3.30  45 3.31
                            36 3.33  33 3.33  43 3.35  42 3.35
  47  0.414  0.337  0.516-   6 2.46  22 2.46  10 2.51  26 2.51   5 2.52  21 2.52  38 3.26  34 3.27

  48  0.673  0.337  0.516-  14 2.46  30 2.46  10 2.51  26 2.51   9 2.52  25 2.52  45 3.26  44 3.27

 
  LATTYP: Found a base centered orthorhombic cell.
 ALAT       =    13.3294895341
 B/A-ratio  =     1.7320774395
 C/A-ratio  =     1.5004325521
  
  Lattice vectors:
  
 A1 = (  13.3296432495,   0.0000000000,   0.0000000000)
 A2 = (  -6.6649753393,  11.5437209290,   0.0000000000)
 A3 = (   0.0000000000,   0.0000000000,  20.0000000000)


Analysis of symmetry for initial positions (statically):
=====================================================================
 Subroutine PRICEL returns:
 Original cell was already a primitive cell.
 

 Routine SETGRP: Setting up the symmetry group for a 
 base centered orthorhombic supercell.


 Subroutine GETGRP returns: Found  2 space group operations
 (whereof  1 operations were pure point group operations)
 out of a pool of  8 trial point group operations.


The static configuration has the point symmetry C_1 .
 The point group associated with its full space group is C_1h.


Analysis of symmetry for dynamics (positions and initial velocities):
=====================================================================
 Subroutine PRICEL returns:
 Original cell was already a primitive cell.
 

 Routine SETGRP: Setting up the symmetry group for a 
 base centered orthorhombic supercell.


 Subroutine GETGRP returns: Found  2 space group operations
 (whereof  1 operations were pure point group operations)
 out of a pool of  8 trial point group operations.


The dynamic configuration has the point symmetry C_1 .
 The point group associated with its full space group is C_1h.


 Subroutine INISYM returns: Found  2 space group operations
 (whereof  1 operations are pure point group operations),
 and found     1 'primitive' translations

 
 
 KPOINTS: k-points                                

Automatic generation of k-mesh.
Space group operators:
 irot       det(A)        alpha          n_x          n_y          n_z        tau_x        tau_y        tau_z
    1     1.000000     0.000000     1.000000     0.000000     0.000000     0.000000     0.000000     0.000000
    2    -1.000000   180.000000     0.000000     0.000000     1.000000     0.000000     0.000000     0.032679
 
 Subroutine IBZKPT returns following result:
 ===========================================
 
 Found     13 irreducible k-points:
 
 Following reciprocal coordinates:
            Coordinates               Weight
  0.000000  0.000000  0.000000      1.000000
  0.200000 -0.000000  0.000000      2.000000
  0.400000 -0.000000  0.000000      2.000000
  0.000000  0.200000  0.000000      2.000000
  0.200000  0.200000  0.000000      2.000000
  0.400000  0.200000  0.000000      2.000000
 -0.400000  0.200000  0.000000      2.000000
 -0.200000  0.200000  0.000000      2.000000
  0.000000  0.400000  0.000000      2.000000
  0.200000  0.400000  0.000000      2.000000
  0.400000  0.400000  0.000000      2.000000
 -0.400000  0.400000  0.000000      2.000000
 -0.200000  0.400000  0.000000      2.000000
 
 Following cartesian coordinates:
            Coordinates               Weight
  0.000000  0.000000  0.000000      1.000000
  0.015004  0.008663  0.000000      2.000000
  0.030008  0.017326  0.000000      2.000000
  0.000000  0.017325  0.000000      2.000000
  0.015004  0.025988  0.000000      2.000000
  0.030008  0.034651  0.000000      2.000000
 -0.030008 -0.000000  0.000000      2.000000
 -0.015004  0.008663  0.000000      2.000000
  0.000000  0.034651  0.000000      2.000000
  0.015004  0.043314  0.000000      2.000000
  0.030008  0.051977  0.000000      2.000000
 -0.030008  0.017325  0.000000      2.000000
 -0.015004  0.025988  0.000000      2.000000
 


--------------------------------------------------------------------------------------------------------




 Dimension of arrays:
   k-points           NKPTS =     13   k-points in BZ     NKDIM =     13   number of bands    NBANDS=    172
   number of dos      NEDOS =    301   number of ions     NIONS =     48
   non local maximal  LDIM  =      6   non local SUM 2l+1 LMDIM =     18
   total plane-waves  NPLWV = 529200
   max r-space proj   IRMAX =   3278   max aug-charges    IRDMAX=  11239
   dimension x,y,z NGX =    70 NGY =   70 NGZ =  108
   dimension x,y,z NGXF=   140 NGYF=  140 NGZF=  216
   support grid    NGXF=   140 NGYF=  140 NGZF=  216
   ions per type =              32  14   2
   NGX,Y,Z   is equivalent  to a cutoff of   8.73,  8.73,  8.98 a.u.
   NGXF,Y,Z  is equivalent  to a cutoff of  17.46, 17.46, 17.95 a.u.

 SYSTEM =  unknown system                          
 POSCAR =  Mo1Se2                                  

 Startparameter for this run:
   NWRITE =      2    write-flag & timer
   PREC   = normal    normal or accurate (medium, high low for compatibility)
   ISTART =      0    job   : 0-new  1-cont  2-samecut
   ICHARG =      2    charge: 1-file 2-atom 10-const
   ISPIN  =      1    spin polarized calculation?
   LNONCOLLINEAR =      F non collinear calculations
   LSORBIT =      F    spin-orbit coupling
   INIWAV =      1    electr: 0-lowe 1-rand  2-diag
   LASPH  =      F    aspherical Exc in radial PAW
   METAGGA=      F    non-selfconsistent MetaGGA calc.

 Electronic Relaxation 1
   ENCUT  =  450.0 eV  33.07 Ry    5.75 a.u.  23.06 23.06 34.59*2*pi/ulx,y,z
   ENINI  =  450.0     initial cutoff
   ENAUG  =  446.8 eV  augmentation charge cutoff
   NELM   =    100;   NELMIN=  2; NELMDL= -5     # of ELM steps 
   EDIFF  = 0.1E-03   stopping-criterion for ELM
   LREAL  =      T    real-space projection
   NLSPLINE    = F    spline interpolate recip. space projectors
   LCOMPAT=      F    compatible to vasp.4.4
   GGA_COMPAT  = T    GGA compatible to vasp.4.4-vasp.4.6
   LMAXPAW     = -100 max onsite density
   LMAXMIX     =    2 max onsite mixed and CHGCAR
   VOSKOWN=      0    Vosko Wilk Nusair interpolation
   ROPT   =   -0.00050  -0.00050  -0.00050
 Ionic relaxation
   EDIFFG = 0.1E-02   stopping-criterion for IOM
   NSW    =      0    number of steps for IOM
   NBLOCK =      1;   KBLOCK =      1    inner block; outer block 
   IBRION =     -1    ionic relax: 0-MD 1-quasi-New 2-CG
   NFREE  =      0    steps in history (QN), initial steepest desc. (CG)
   ISIF   =      2    stress and relaxation
   IWAVPR =     10    prediction:  0-non 1-charg 2-wave 3-comb
   ISYM   =      2    0-nonsym 1-usesym 2-fastsym
   LCORR  =      T    Harris-Foulkes like correction to forces

   POTIM  = 0.5000    time-step for ionic-motion
   TEIN   =    0.0    initial temperature
   TEBEG  =    0.0;   TEEND  =   0.0 temperature during run
   SMASS  =  -3.00    Nose mass-parameter (am)
   estimated Nose-frequenzy (Omega)   =  0.10E-29 period in steps =****** mass=  -0.406E-26a.u.
   SCALEE = 1.0000    scale energy and forces
   NPACO  =    256;   APACO  = 16.0  distance and # of slots for P.C.
   PSTRESS=    0.0 pullay stress

  Mass of Ions in am
   POMASS =  78.96 95.94 50.94
  Ionic Valenz
   ZVAL   =   6.00  6.00  5.00
  Atomic Wigner-Seitz radii
   RWIGS  =  -1.00 -1.00 -1.00
  virtual crystal weights 
   VCA    =   1.00  1.00  1.00
   NELECT =     286.0000    total number of electrons
   NUPDOWN=      -1.0000    fix difference up-down

 DOS related values:
   EMIN   =  10.00;   EMAX   =-10.00  energy-range for DOS
   EFERMI =   0.00
   ISMEAR =     0;   SIGMA  =   0.10  broadening in eV -4-tet -1-fermi 0-gaus

 Electronic relaxation 2 (details)
   IALGO  =     38    algorithm
   LDIAG  =      T    sub-space diagonalisation (order eigenvalues)
   LSUBROT=      F    optimize rotation matrix (better conditioning)
   TURBO    =      0    0=normal 1=particle mesh
   IRESTART =      0    0=no restart 2=restart with 2 vectors
   NREBOOT  =      0    no. of reboots
   NMIN     =      0    reboot dimension
   EREF     =   0.00    reference energy to select bands
   IMIX   =      4    mixing-type and parameters
     AMIX     =   0.40;   BMIX     =  1.00
     AMIX_MAG =   1.60;   BMIX_MAG =  1.00
     AMIN     =   0.10
     WC   =   100.;   INIMIX=   1;  MIXPRE=   1;  MAXMIX= -45

 Intra band minimization:
   WEIMIN = 0.0000     energy-eigenvalue tresh-hold
   EBREAK =  0.15E-06  absolut break condition
   DEPER  =   0.30     relativ break condition  

   TIME   =   0.40     timestep for ELM

  volume/ion in A,a.u.               =      64.11       432.66
  Fermi-wavevector in a.u.,A,eV,Ry     =   0.741536  1.401299  7.481506  0.549875
  Thomas-Fermi vector in A             =   1.836200
 
 Write flags
   LWAVE        =      T    write WAVECAR
   LDOWNSAMPLE  =      F    k-point downsampling of WAVECAR
   LCHARG       =      T    write CHGCAR
   LVTOT        =      F    write LOCPOT, total local potential
   LVHAR        =      F    write LOCPOT, Hartree potential only
   LELF         =      F    write electronic localiz. function (ELF)
   LORBIT       =      0    0 simple, 1 ext, 2 COOP (PROOUT), +10 PAW based schemes


 Dipole corrections
   LMONO  =      F    monopole corrections only (constant potential shift)
   LDIPOL =      F    correct potential (dipole corrections)
   IDIPOL =      0    1-x, 2-y, 3-z, 4-all directions 
   EPSILON=  1.0000000 bulk dielectric constant

 Exchange correlation treatment:
   GGA     =    --    GGA type
   LEXCH   =     8    internal setting for exchange type
   VOSKOWN=      0    Vosko Wilk Nusair interpolation
   LHFCALC =     F    Hartree Fock is set to
   LHFONE  =     F    Hartree Fock one center treatment
   AEXX    =    0.0000 exact exchange contribution

 Linear response parameters
   LEPSILON=     F    determine dielectric tensor
   LRPA    =     F    only Hartree local field effects (RPA)
   LNABLA  =     F    use nabla operator in PAW spheres
   LVEL    =     F    velocity operator in full k-point grid
   LINTERFAST=   F  fast interpolation
   KINTER  =     0    interpolate to denser k-point grid
   CSHIFT  =0.1000    complex shift for real part using Kramers Kronig
   OMEGAMAX=  -1.0    maximum frequency
   DEG_THRESHOLD= 0.2000000E-02 threshold for treating states as degnerate
   RTIME   =   -0.100 relaxation time in fs
  (WPLASMAI=    0.000 imaginary part of plasma frequency in eV, 0.658/RTIME)
   DFIELD  = 0.0000000 0.0000000 0.0000000 field for delta impulse in time
 
 Orbital magnetization related:
   ORBITALMAG=     F  switch on orbital magnetization
   LCHIMAG   =     F  perturbation theory with respect to B field
   DQ        =  0.001000  dq finite difference perturbation B field
   LLRAUG    =     F  two centre corrections for induced B field



--------------------------------------------------------------------------------------------------------


 Static calculation
 charge density and potential will be updated during run
 non-spin polarized calculation
 Variant of blocked Davidson
 Davidson routine will perform the subspace rotation
 perform sub-space diagonalisation
    after iterative eigenvector-optimisation
 modified Broyden-mixing scheme, WC =      100.0
 initial mixing is a Kerker type mixing with AMIX =  0.4000 and BMIX =      1.0000
 Hartree-type preconditioning will be used
 using additional bands           29
 real space projection scheme for non local part
 use partial core corrections
 calculate Harris-corrections to forces 
   (improved forces if not selfconsistent)
 use gradient corrections 
 use of overlap-Matrix (Vanderbilt PP)
 Gauss-broadening in eV      SIGMA  =   0.10


--------------------------------------------------------------------------------------------------------


  energy-cutoff  :      450.00
  volume of cell :     3077.47
      direct lattice vectors                 reciprocal lattice vectors
    13.329643250  0.000000000  0.000000000     0.075020762  0.043314589  0.000000000
    -6.664975339 11.543720929  0.000000000     0.000000000  0.086627181  0.000000000
     0.000000000  0.000000000 20.000000000     0.000000000  0.000000000  0.050000000

  length of vectors
    13.329643250 13.329643250 20.000000000     0.086627181  0.086627181  0.050000000


 
 k-points in units of 2pi/SCALE and weight: k-points                                
   0.00000000  0.00000000  0.00000000       0.040
   0.01500415  0.00866292  0.00000000       0.080
   0.03000830  0.01732584  0.00000000       0.080
   0.00000000  0.01732544  0.00000000       0.080
   0.01500415  0.02598835  0.00000000       0.080
   0.03000830  0.03465127  0.00000000       0.080
  -0.03000830 -0.00000040  0.00000000       0.080
  -0.01500415  0.00866252  0.00000000       0.080
   0.00000000  0.03465087  0.00000000       0.080
   0.01500415  0.04331379  0.00000000       0.080
   0.03000830  0.05197671  0.00000000       0.080
  -0.03000830  0.01732504  0.00000000       0.080
  -0.01500415  0.02598795  0.00000000       0.080
 
 k-points in reciprocal lattice and weights: k-points                                
   0.00000000  0.00000000  0.00000000       0.040
   0.20000000 -0.00000000  0.00000000       0.080
   0.40000000 -0.00000000  0.00000000       0.080
   0.00000000  0.20000000  0.00000000       0.080
   0.20000000  0.20000000  0.00000000       0.080
   0.40000000  0.20000000  0.00000000       0.080
  -0.40000000  0.20000000  0.00000000       0.080
  -0.20000000  0.20000000  0.00000000       0.080
   0.00000000  0.40000000  0.00000000       0.080
   0.20000000  0.40000000  0.00000000       0.080
   0.40000000  0.40000000  0.00000000       0.080
  -0.40000000  0.40000000  0.00000000       0.080
  -0.20000000  0.40000000  0.00000000       0.080
 
 position of ions in fractional coordinates (direct lattice) 
   0.08323836  0.16667662  0.43272026
   0.08308827  0.41620642  0.43329658
   0.08278784  0.66633724  0.43332869
   0.08351319  0.91687784  0.43301890
   0.33551503  0.16965036  0.43535693
   0.33467394  0.41571814  0.43359905
   0.33353885  0.66632326  0.43333671
   0.33233361  0.91469772  0.43220679
   0.58422458  0.16968675  0.43536163
   0.58212052  0.41417928  0.43713802
   0.58338419  0.66676899  0.43254409
   0.58332228  0.91686433  0.43302375
   0.83346104  0.16669429  0.43268470
   0.83096277  0.41568950  0.43359292
   0.83339550  0.66676715  0.43249802
   0.83317601  0.91639272  0.43356504
   0.08323836  0.16667662  0.59995825
   0.08308827  0.41620642  0.59938193
   0.08278784  0.66633724  0.59934982
   0.08351319  0.91687784  0.59965961
   0.33551503  0.16965036  0.59732158
   0.33467394  0.41571814  0.59907946
   0.33353885  0.66632326  0.59934180
   0.33233361  0.91469772  0.60047172
   0.58422458  0.16968675  0.59731688
   0.58212052  0.41417928  0.59554049
   0.58338419  0.66676899  0.60013442
   0.58332228  0.91686433  0.59965476
   0.83346104  0.16669429  0.59999381
   0.83096277  0.41568950  0.59908559
   0.83339550  0.66676715  0.60018048
   0.83317601  0.91639272  0.59911347
   0.16561761  0.08325318  0.51633925
   0.16631202  0.33211364  0.51633925
   0.16649663  0.58299239  0.51633925
   0.16714672  0.83378435  0.51633925
   0.41405281  0.07804823  0.51633925
   0.41776644  0.58354846  0.51633925
   0.41659399  0.83375738  0.51633925
   0.66768375  0.08326169  0.51633925
   0.66834859  0.58661152  0.51633925
   0.66547672  0.83258623  0.51633925
   0.91705409  0.08413240  0.51633925
   0.91577084  0.33211493  0.51633925
   0.91574772  0.58355862  0.51633925
   0.91706701  0.83256037  0.51633925
   0.41379973  0.33665203  0.51633925
   0.67289506  0.33666285  0.51633925
 
 position of ions in cartesian coordinates  (Angst):
  -0.00135788  1.92406843  8.65440528
  -1.66646858  4.80457077  8.66593167
  -3.33758890  7.69201116  8.66657385
  -4.99776717 10.58418185  8.66037803
   3.34158021  1.95839638  8.70713860
   1.69033307  4.79893421  8.67198094
   0.00492582  7.69184972  8.66673420
  -1.66654926 10.55901526  8.64413582
   6.65654725  1.95881654  8.70723260
   4.99896419  4.78117002  8.74276033
   3.33230420  7.69699512  8.65088177
   1.66459976 10.58402599  8.66047493
   9.99872494  1.92427241  8.65369391
   8.30587697  4.79860364  8.67185841
   6.66487812  7.69697390  8.64996049
   4.99820410 10.57858181  8.67130078
  -0.00135788  1.92406843 11.99916490
  -1.66646858  4.80457077 11.98763851
  -3.33758890  7.69201116 11.98699633
  -4.99776717 10.58418185 11.99319215
   3.34158021  1.95839638 11.94643158
   1.69033307  4.79893421 11.98158924
   0.00492582  7.69184972 11.98683598
  -1.66654926 10.55901526 12.00943436
   6.65654725  1.95881654 11.94633758
   4.99896419  4.78117002 11.91080985
   3.33230420  7.69699512 12.00268841
   1.66459976 10.58402599 11.99309525
   9.99872494  1.92427241 11.99987627
   8.30587697  4.79860364 11.98171177
   6.66487812  7.69697390 12.00360969
   4.99820410 10.57858181 11.98226940
   1.65274331  0.96105147 10.32678508
   0.00335073  3.83382714 10.32678508
  -1.66628926  6.72990143 10.32678508
  -3.32914596  9.62497381 10.32678508
   4.99898669  0.90096701 10.32678508
   1.67934143  6.73632061 10.32678508
  -0.00392303  9.62466246 10.32678508
   8.34504906  0.96114974 10.32678508
   4.99909691  6.77167972 10.32678508
   3.32140050  9.61114312 10.32678508
  11.66326340  0.97120099 10.32678508
   9.99336085  3.83384202 10.32678508
   8.31718653  6.73643789 10.32678508
   6.67518176  9.61084460 10.32678508
   3.27202533  3.88621708 10.32678508
   6.72560145  3.88634201 10.32678508
 


--------------------------------------------------------------------------------------------------------


 k-point  1 :   0.0000 0.0000 0.0000  plane waves:   66501
 k-point  2 :   0.2000-0.0000 0.0000  plane waves:   66712
 k-point  3 :   0.4000-0.0000 0.0000  plane waves:   66746
 k-point  4 :   0.0000 0.2000 0.0000  plane waves:   66712
 k-point  5 :   0.2000 0.2000 0.0000  plane waves:   66715
 k-point  6 :   0.4000 0.2000 0.0000  plane waves:   66712
 k-point  7 :  -0.4000 0.2000 0.0000  plane waves:   66715
 k-point  8 :  -0.2000 0.2000 0.0000  plane waves:   66712
 k-point  9 :   0.0000 0.4000 0.0000  plane waves:   66746
 k-point 10 :   0.2000 0.4000 0.0000  plane waves:   66712
 k-point 11 :   0.4000 0.4000 0.0000  plane waves:   66713
 k-point 12 :  -0.4000 0.4000 0.0000  plane waves:   66746
 k-point 13 :  -0.2000 0.4000 0.0000  plane waves:   66715

 maximum and minimum number of plane-waves per node :      2815     2744

 maximum number of plane-waves:     66746
 maximum index in each direction: 
   IXMAX=   23   IYMAX=   23   IZMAX=   34
   IXMIN=  -23   IYMIN=  -23   IZMIN=  -34


 real space projection operators:
  total allocation   :      11907.16 KBytes
  max/ min on nodes  :        551.17        374.55


 parallel 3D FFT for wavefunctions:
    minimum data exchange during FFTs selected (reduces bandwidth)
 parallel 3D FFT for charge:
    minimum data exchange during FFTs selected (reduces bandwidth)


 total amount of memory used by VASP MPI-rank0    66020. kBytes
=======================================================================

   base      :      30000. kBytes
   nonlr-proj:       3263. kBytes
   fftplans  :       2625. kBytes
   grid      :       4808. kBytes
   one-center:         31. kBytes
   wavefun   :      25293. kBytes
 
     INWAV:  cpu time    0.0000: real time    0.0000
 Broyden mixing: mesh for mixing (old mesh)
   NGX = 47   NGY = 47   NGZ = 69
  (NGX  =140   NGY  =140   NGZ  =216)
  gives a total of 152421 points

 initial charge density was supplied:
 charge density of overlapping atoms calculated
 number of electron     286.0000000 magnetization 
 keeping initial charge density in first step


--------------------------------------------------------------------------------------------------------


 Maximum index for non-local projection operator          235
 Maximum index for augmentation-charges          527 (set IRDMAX)


--------------------------------------------------------------------------------------------------------


 First call to EWALD:  gamma=   0.122
 Maximum number of real-space cells 3x 3x 2
 Maximum number of reciprocal cells 3x 3x 4

    FEWALD:  cpu time    0.0046: real time    0.0074


--------------------------------------- Iteration      1(   1)  ---------------------------------------


    POTLOK:  cpu time    0.0499: real time    0.0736
    SETDIJ:  cpu time    0.0193: real time    0.0235
     EDDAV:  cpu time    4.9914: real time    5.0352
       DOS:  cpu time    0.0070: real time    0.0132
    --------------------------------------------
      LOOP:  cpu time    5.0676: real time    5.1456

 eigenvalue-minimisations  :  4480
 total energy-change (2. order) : 0.2221301E+04  (-0.8920990E+04)
 number of electron     286.0000000 magnetization 
 augmentation part      286.0000000 magnetization 

 Free energy of the ion-electron system (eV)
  ---------------------------------------------------
  alpha Z        PSCENC =       333.20899252
  Ewald energy   TEWEN  =     33195.71850019
  -Hartree energ DENC   =    -43795.63189725
  -exchange      EXHF   =         0.00000000
  -V(xc)+E(xc)   XCENC  =      -964.26419742
  PAW double counting   =     10860.30898043    -9324.62408074
  entropy T*S    EENTRO =        -0.13787066
  eigenvalues    EBANDS =       301.69337358
  atomic energy  EATOM  =     11615.02873374
  Solvation  Ediel_sol  =         0.00000000
  ---------------------------------------------------
  free energy    TOTEN  =      2221.30053438 eV

  energy without entropy =     2221.43840504  energy(sigma->0) =     2221.36946971


--------------------------------------------------------------------------------------------------------




--------------------------------------- Iteration      1(   2)  ---------------------------------------


     EDDAV:  cpu time    6.6272: real time    6.6467
       DOS:  cpu time    0.0023: real time    0.0023
    --------------------------------------------
      LOOP:  cpu time    6.6294: real time    6.6489

 eigenvalue-minimisations  :  6552
 total energy-change (2. order) :-0.2162593E+04  (-0.2073307E+04)
 number of electron     286.0000000 magnetization 
 augmentation part      286.0000000 magnetization 

 Free energy of the ion-electron system (eV)
  ---------------------------------------------------
  alpha Z        PSCENC =       333.20899252
  Ewald energy   TEWEN  =     33195.71850019
  -Hartree energ DENC   =    -43795.63189725
  -exchange      EXHF   =         0.00000000
  -V(xc)+E(xc)   XCENC  =      -964.26419742
  PAW double counting   =     10860.30898043    -9324.62408074
  entropy T*S    EENTRO =        -0.03266899
  eigenvalues    EBANDS =     -1861.00433033
  atomic energy  EATOM  =     11615.02873374
  Solvation  Ediel_sol  =         0.00000000
  ---------------------------------------------------
  free energy    TOTEN  =        58.70803215 eV

  energy without entropy =       58.74070113  energy(sigma->0) =       58.72436664


--------------------------------------------------------------------------------------------------------




--------------------------------------- Iteration      1(   3)  ---------------------------------------


     EDDAV:  cpu time    5.6903: real time    5.7127
       DOS:  cpu time    0.0025: real time    0.0025
    --------------------------------------------
      LOOP:  cpu time    5.6928: real time    5.7152

 eigenvalue-minimisations  :  5424
 total energy-change (2. order) :-0.3716405E+03  (-0.3657006E+03)
 number of electron     286.0000000 magnetization 
 augmentation part      286.0000000 magnetization 

 Free energy of the ion-electron system (eV)
  ---------------------------------------------------
  alpha Z        PSCENC =       333.20899252
  Ewald energy   TEWEN  =     33195.71850019
  -Hartree energ DENC   =    -43795.63189725
  -exchange      EXHF   =         0.00000000
  -V(xc)+E(xc)   XCENC  =      -964.26419742
  PAW double counting   =     10860.30898043    -9324.62408074
  entropy T*S    EENTRO =        -0.01027905
  eigenvalues    EBANDS =     -2232.66726051
  atomic energy  EATOM  =     11615.02873374
  Solvation  Ediel_sol  =         0.00000000
  ---------------------------------------------------
  free energy    TOTEN  =      -312.93250810 eV

  energy without entropy =     -312.92222905  energy(sigma->0) =     -312.92736858


--------------------------------------------------------------------------------------------------------




--------------------------------------- Iteration      1(   4)  ---------------------------------------


     EDDAV:  cpu time    6.8554: real time    6.8798
       DOS:  cpu time    0.0029: real time    0.0029
    --------------------------------------------
      LOOP:  cpu time    6.8583: real time    6.8827

 eigenvalue-minimisations  :  6888
 total energy-change (2. order) :-0.2279433E+02  (-0.2259172E+02)
 number of electron     286.0000000 magnetization 
 augmentation part      286.0000000 magnetization 

 Free energy of the ion-electron system (eV)
  ---------------------------------------------------
  alpha Z        PSCENC =       333.20899252
  Ewald energy   TEWEN  =     33195.71850019
  -Hartree energ DENC   =    -43795.63189725
  -exchange      EXHF   =         0.00000000
  -V(xc)+E(xc)   XCENC  =      -964.26419742
  PAW double counting   =     10860.30898043    -9324.62408074
  entropy T*S    EENTRO =        -0.00566528
  eigenvalues    EBANDS =     -2255.46619950
  atomic energy  EATOM  =     11615.02873374
  Solvation  Ediel_sol  =         0.00000000
  ---------------------------------------------------
  free energy    TOTEN  =      -335.72683332 eV

  energy without entropy =     -335.72116804  energy(sigma->0) =     -335.72400068


--------------------------------------------------------------------------------------------------------




--------------------------------------- Iteration      1(   5)  ---------------------------------------


     EDDAV:  cpu time    7.0705: real time    7.0971
       DOS:  cpu time    0.0028: real time    0.0028
    CHARGE:  cpu time    0.1999: real time    0.2207
    MIXING:  cpu time    0.0076: real time    0.0158
    --------------------------------------------
      LOOP:  cpu time    7.2808: real time    7.3363

 eigenvalue-minimisations  :  7192
 total energy-change (2. order) :-0.1006859E+01  (-0.1000616E+01)
 number of electron     285.9999945 magnetization 
 augmentation part      -23.8475548 magnetization 

 Broyden mixing:
  rms(total) = 0.70012E+01    rms(broyden)= 0.70012E+01
  rms(prec ) = 0.71606E+01
  weight for this iteration     100.00

 Free energy of the ion-electron system (eV)
  ---------------------------------------------------
  alpha Z        PSCENC =       333.20899252
  Ewald energy   TEWEN  =     33195.71850019
  -Hartree energ DENC   =    -43795.63189725
  -exchange      EXHF   =         0.00000000
  -V(xc)+E(xc)   XCENC  =      -964.26419742
  PAW double counting   =     10860.30898043    -9324.62408074
  entropy T*S    EENTRO =        -0.00555170
  eigenvalues    EBANDS =     -2256.47317176
  atomic energy  EATOM  =     11615.02873374
  Solvation  Ediel_sol  =         0.00000000
  ---------------------------------------------------
  free energy    TOTEN  =      -336.73369200 eV

  energy without entropy =     -336.72814030  energy(sigma->0) =     -336.73091615


--------------------------------------------------------------------------------------------------------




--------------------------------------- Iteration      1(   6)  ---------------------------------------


    POTLOK:  cpu time    0.0414: real time    0.0541
    SETDIJ:  cpu time    0.0038: real time    0.0038
     EDDAV:  cpu time    7.0582: real time    7.0729
       DOS:  cpu time    0.0031: real time    0.0031
    CHARGE:  cpu time    0.2135: real time    0.2140
    MIXING:  cpu time    0.0047: real time    0.0067
    --------------------------------------------
      LOOP:  cpu time    7.3246: real time    7.3545

 eigenvalue-minimisations  :  7176
 total energy-change (2. order) :-0.3148573E+01  (-0.2735070E+02)
 number of electron     285.9999929 magnetization 
 augmentation part       -6.4742200 magnetization 

 Broyden mixing:
  rms(total) = 0.61338E+01    rms(broyden)= 0.61338E+01
  rms(prec ) = 0.69614E+01
  weight for this iteration     100.00

 eigenvalues of (default mixing * dielectric matrix)
  average eigenvalue GAMMA=   0.6113
  0.6113

 Free energy of the ion-electron system (eV)
  ---------------------------------------------------
  alpha Z        PSCENC =       333.20899252
  Ewald energy   TEWEN  =     33195.71850019
  -Hartree energ DENC   =    -43739.10319938
  -exchange      EXHF   =         0.00000000
  -V(xc)+E(xc)   XCENC  =      -954.25377567
  PAW double counting   =     13586.72040294   -12058.63127233
  entropy T*S    EENTRO =        -0.16420191
  eigenvalues    EBANDS =     -2318.40644538
  atomic energy  EATOM  =     11615.02873374
  Solvation  Ediel_sol  =         0.00000000
  ---------------------------------------------------
  free energy    TOTEN  =      -339.88226528 eV

  energy without entropy =     -339.71806337  energy(sigma->0) =     -339.80016433


--------------------------------------------------------------------------------------------------------




--------------------------------------- Iteration      1(   7)  ---------------------------------------


    POTLOK:  cpu time    0.0407: real time    0.0522
    SETDIJ:  cpu time    0.0039: real time    0.0039
     EDDAV:  cpu time    7.2444: real time    7.2594
       DOS:  cpu time    0.0028: real time    0.0028
    CHARGE:  cpu time    0.1973: real time    0.1977
    MIXING:  cpu time    0.0020: real time    0.0025
    --------------------------------------------
      LOOP:  cpu time    7.4912: real time    7.5187

 eigenvalue-minimisations  :  7360
 total energy-change (2. order) : 0.2904561E+00  (-0.6604488E+02)
 number of electron     285.9999940 magnetization 
 augmentation part      -16.3130513 magnetization 

 Broyden mixing:
  rms(total) = 0.29030E+01    rms(broyden)= 0.29030E+01
  rms(prec ) = 0.34474E+01
  weight for this iteration     100.00

 eigenvalues of (default mixing * dielectric matrix)
  average eigenvalue GAMMA=   0.8624
  1.3709  0.3538

 Free energy of the ion-electron system (eV)
  ---------------------------------------------------
  alpha Z        PSCENC =       333.20899252
  Ewald energy   TEWEN  =     33195.71850019
  -Hartree energ DENC   =    -43838.98792061
  -exchange      EXHF   =         0.00000000
  -V(xc)+E(xc)   XCENC  =      -955.97822108
  PAW double counting   =     14623.55148303   -13107.47497945
  entropy T*S    EENTRO =        -0.00568156
  eigenvalues    EBANDS =     -2204.65271595
  atomic energy  EATOM  =     11615.02873374
  Solvation  Ediel_sol  =         0.00000000
  ---------------------------------------------------
  free energy    TOTEN  =      -339.59180918 eV

  energy without entropy =     -339.58612762  energy(sigma->0) =     -339.58896840


--------------------------------------------------------------------------------------------------------




--------------------------------------- Iteration      1(   8)  ---------------------------------------


    POTLOK:  cpu time    0.0401: real time    0.0539
    SETDIJ:  cpu time    0.0041: real time    0.0041
     EDDAV:  cpu time    6.5986: real time    6.6118
       DOS:  cpu time    0.0027: real time    0.0027
    CHARGE:  cpu time    0.1950: real time    0.1954
    MIXING:  cpu time    0.0016: real time    0.0020
    --------------------------------------------
      LOOP:  cpu time    6.8422: real time    6.8700

 eigenvalue-minimisations  :  6592
 total energy-change (2. order) : 0.7900645E+01  (-0.1571003E+02)
 number of electron     285.9999943 magnetization 
 augmentation part      -21.6817884 magnetization 

 Broyden mixing:
  rms(total) = 0.28775E+01    rms(broyden)= 0.28775E+01
  rms(prec ) = 0.32422E+01
  weight for this iteration     100.00

 eigenvalues of (default mixing * dielectric matrix)
  average eigenvalue GAMMA=   0.8796
  1.8323  0.4033  0.4033

 Free energy of the ion-electron system (eV)
  ---------------------------------------------------
  alpha Z        PSCENC =       333.20899252
  Ewald energy   TEWEN  =     33195.71850019
  -Hartree energ DENC   =    -43902.07753457
  -exchange      EXHF   =         0.00000000
  -V(xc)+E(xc)   XCENC  =      -956.45409305
  PAW double counting   =     16700.48584425   -15186.70758436
  entropy T*S    EENTRO =        -0.00164280
  eigenvalues    EBANDS =     -2130.89238016
  atomic energy  EATOM  =     11615.02873374
  Solvation  Ediel_sol  =         0.00000000
  ---------------------------------------------------
  free energy    TOTEN  =      -331.69116424 eV

  energy without entropy =     -331.68952144  energy(sigma->0) =     -331.69034284


--------------------------------------------------------------------------------------------------------




--------------------------------------- Iteration      1(   9)  ---------------------------------------


    POTLOK:  cpu time    0.0382: real time    0.0519
    SETDIJ:  cpu time    0.0036: real time    0.0036
     EDDAV:  cpu time    6.9808: real time    6.9946
       DOS:  cpu time    0.0028: real time    0.0028
    CHARGE:  cpu time    0.1934: real time    0.1938
    MIXING:  cpu time    0.0015: real time    0.0015
    --------------------------------------------
      LOOP:  cpu time    7.2203: real time    7.2483

 eigenvalue-minimisations  :  7076
 total energy-change (2. order) : 0.1158823E+02  (-0.3762727E+01)
 number of electron     285.9999942 magnetization 
 augmentation part      -19.7014190 magnetization 

 Broyden mixing:
  rms(total) = 0.16736E+01    rms(broyden)= 0.16736E+01
  rms(prec ) = 0.18971E+01
  weight for this iteration     100.00

 eigenvalues of (default mixing * dielectric matrix)
  average eigenvalue GAMMA=   0.8794
  1.9387  0.5914  0.5914  0.3959

 Free energy of the ion-electron system (eV)
  ---------------------------------------------------
  alpha Z        PSCENC =       333.20899252
  Ewald energy   TEWEN  =     33195.71850019
  -Hartree energ DENC   =    -43890.62375352
  -exchange      EXHF   =         0.00000000
  -V(xc)+E(xc)   XCENC  =      -952.97534898
  PAW double counting   =     17956.69793193   -16445.04176985
  entropy T*S    EENTRO =        -0.02549543
  eigenvalues    EBANDS =     -2132.09072027
  atomic energy  EATOM  =     11615.02873374
  Solvation  Ediel_sol  =         0.00000000
  ---------------------------------------------------
  free energy    TOTEN  =      -320.10292968 eV

  energy without entropy =     -320.07743424  energy(sigma->0) =     -320.09018196


--------------------------------------------------------------------------------------------------------




--------------------------------------- Iteration      1(  10)  ---------------------------------------


    POTLOK:  cpu time    0.0384: real time    0.0527
    SETDIJ:  cpu time    0.0039: real time    0.0039
     EDDAV:  cpu time    7.2714: real time    7.2859
       DOS:  cpu time    0.0030: real time    0.0030
    CHARGE:  cpu time    0.1917: real time    0.1922
    MIXING:  cpu time    0.0014: real time    0.0014
    --------------------------------------------
      LOOP:  cpu time    7.5098: real time    7.5390

 eigenvalue-minimisations  :  7432
 total energy-change (2. order) : 0.3616752E+01  (-0.1187284E+01)
 number of electron     285.9999941 magnetization 
 augmentation part      -17.4943684 magnetization 

 Broyden mixing:
  rms(total) = 0.12607E+01    rms(broyden)= 0.12607E+01
  rms(prec ) = 0.13534E+01
  weight for this iteration     100.00

 eigenvalues of (default mixing * dielectric matrix)
  average eigenvalue GAMMA=   0.7962
  1.9015  0.6136  0.6136  0.4261  0.4261

 Free energy of the ion-electron system (eV)
  ---------------------------------------------------
  alpha Z        PSCENC =       333.20899252
  Ewald energy   TEWEN  =     33195.71850019
  -Hartree energ DENC   =    -43891.64915977
  -exchange      EXHF   =         0.00000000
  -V(xc)+E(xc)   XCENC  =      -951.51589861
  PAW double counting   =     17957.63544137   -16445.55053644
  entropy T*S    EENTRO =        -0.01282143
  eigenvalues    EBANDS =     -2129.34942951
  atomic energy  EATOM  =     11615.02873374
  Solvation  Ediel_sol  =         0.00000000
  ---------------------------------------------------
  free energy    TOTEN  =      -316.48617794 eV

  energy without entropy =     -316.47335652  energy(sigma->0) =     -316.47976723


--------------------------------------------------------------------------------------------------------




--------------------------------------- Iteration      1(  11)  ---------------------------------------


    POTLOK:  cpu time    0.0377: real time    0.0510
    SETDIJ:  cpu time    0.0037: real time    0.0037
     EDDAV:  cpu time    7.1749: real time    7.1894
       DOS:  cpu time    0.0029: real time    0.0029
    CHARGE:  cpu time    0.1931: real time    0.1936
    MIXING:  cpu time    0.0016: real time    0.0016
    --------------------------------------------
      LOOP:  cpu time    7.4139: real time    7.4422

 eigenvalue-minimisations  :  7248
 total energy-change (2. order) : 0.3638230E+00  (-0.1166535E+00)
 number of electron     285.9999940 magnetization 
 augmentation part      -17.3869360 magnetization 

 Broyden mixing:
  rms(total) = 0.11453E+01    rms(broyden)= 0.11453E+01
  rms(prec ) = 0.12200E+01
  weight for this iteration     100.00

 eigenvalues of (default mixing * dielectric matrix)
  average eigenvalue GAMMA=   0.7656
  1.8880  0.7095  0.7095  0.4682  0.4682  0.3502

 Free energy of the ion-electron system (eV)
  ---------------------------------------------------
  alpha Z        PSCENC =       333.20899252
  Ewald energy   TEWEN  =     33195.71850019
  -Hartree energ DENC   =    -43896.98956984
  -exchange      EXHF   =         0.00000000
  -V(xc)+E(xc)   XCENC  =      -951.50061587
  PAW double counting   =     17921.05123394   -16408.71497936
  entropy T*S    EENTRO =        -0.04385537
  eigenvalues    EBANDS =     -2123.88079486
  atomic energy  EATOM  =     11615.02873374
  Solvation  Ediel_sol  =         0.00000000
  ---------------------------------------------------
  free energy    TOTEN  =      -316.12235492 eV

  energy without entropy =     -316.07849955  energy(sigma->0) =     -316.10042724


--------------------------------------------------------------------------------------------------------




--------------------------------------- Iteration      1(  12)  ---------------------------------------


    POTLOK:  cpu time    0.0434: real time    0.0540
    SETDIJ:  cpu time    0.0039: real time    0.0039
     EDDAV:  cpu time    7.0497: real time    7.0639
       DOS:  cpu time    0.0031: real time    0.0031
    CHARGE:  cpu time    0.1930: real time    0.1935
    MIXING:  cpu time    0.0016: real time    0.0016
    --------------------------------------------
      LOOP:  cpu time    7.2948: real time    7.3200

 eigenvalue-minimisations  :  7104
 total energy-change (2. order) : 0.1506617E+00  (-0.2288116E-01)
 number of electron     285.9999941 magnetization 
 augmentation part      -17.4715329 magnetization 

 Broyden mixing:
  rms(total) = 0.10588E+01    rms(broyden)= 0.10588E+01
  rms(prec ) = 0.11320E+01
  weight for this iteration     100.00

 eigenvalues of (default mixing * dielectric matrix)
  average eigenvalue GAMMA=   0.9238
  1.9492  1.2984  1.2984  0.5693  0.5693  0.3911  0.3911

 Free energy of the ion-electron system (eV)
  ---------------------------------------------------
  alpha Z        PSCENC =       333.20899252
  Ewald energy   TEWEN  =     33195.71850019
  -Hartree energ DENC   =    -43902.18188284
  -exchange      EXHF   =         0.00000000
  -V(xc)+E(xc)   XCENC  =      -951.50296911
  PAW double counting   =     17919.49989504   -16406.98776593
  entropy T*S    EENTRO =        -0.02754646
  eigenvalues    EBANDS =     -2118.72765033
  atomic energy  EATOM  =     11615.02873374
  Solvation  Ediel_sol  =         0.00000000
  ---------------------------------------------------
  free energy    TOTEN  =      -315.97169317 eV

  energy without entropy =     -315.94414671  energy(sigma->0) =     -315.95791994


--------------------------------------------------------------------------------------------------------




--------------------------------------- Iteration      1(  13)  ---------------------------------------


    POTLOK:  cpu time    0.0389: real time    0.0542
    SETDIJ:  cpu time    0.0041: real time    0.0041
     EDDAV:  cpu time    6.9425: real time    6.9565
       DOS:  cpu time    0.0031: real time    0.0031
    CHARGE:  cpu time    0.1919: real time    0.1923
    MIXING:  cpu time    0.0015: real time    0.0015
    --------------------------------------------
      LOOP:  cpu time    7.1821: real time    7.2119

 eigenvalue-minimisations  :  7008
 total energy-change (2. order) : 0.6960962E-01  (-0.3478420E-01)
 number of electron     285.9999940 magnetization 
 augmentation part      -17.4437915 magnetization 

 Broyden mixing:
  rms(total) = 0.89313E+00    rms(broyden)= 0.89312E+00
  rms(prec ) = 0.97918E+00
  weight for this iteration     100.00

 eigenvalues of (default mixing * dielectric matrix)
  average eigenvalue GAMMA=   0.9771
  2.0320  1.7035  1.7035  0.6005  0.6005  0.4196  0.4196  0.3371

 Free energy of the ion-electron system (eV)
  ---------------------------------------------------
  alpha Z        PSCENC =       333.20899252
  Ewald energy   TEWEN  =     33195.71850019
  -Hartree energ DENC   =    -43911.94489606
  -exchange      EXHF   =         0.00000000
  -V(xc)+E(xc)   XCENC  =      -951.18939828
  PAW double counting   =     17965.80560612   -16453.21046023
  entropy T*S    EENTRO =        -0.05310954
  eigenvalues    EBANDS =     -2109.26605202
  atomic energy  EATOM  =     11615.02873374
  Solvation  Ediel_sol  =         0.00000000
  ---------------------------------------------------
  free energy    TOTEN  =      -315.90208355 eV

  energy without entropy =     -315.84897402  energy(sigma->0) =     -315.87552878


--------------------------------------------------------------------------------------------------------




--------------------------------------- Iteration      1(  14)  ---------------------------------------


    POTLOK:  cpu time    0.0383: real time    0.0497
    SETDIJ:  cpu time    0.0038: real time    0.0038
     EDDAV:  cpu time    6.9797: real time    6.9937
       DOS:  cpu time    0.0029: real time    0.0029
    CHARGE:  cpu time    0.1920: real time    0.1924
    MIXING:  cpu time    0.0016: real time    0.0016
    --------------------------------------------
      LOOP:  cpu time    7.2183: real time    7.2441

 eigenvalue-minimisations  :  7080
 total energy-change (2. order) : 0.5374699E+00  (-0.9370646E-01)
 number of electron     285.9999940 magnetization 
 augmentation part      -16.9767601 magnetization 

 Broyden mixing:
  rms(total) = 0.56564E+00    rms(broyden)= 0.56564E+00
  rms(prec ) = 0.60762E+00
  weight for this iteration     100.00

 eigenvalues of (default mixing * dielectric matrix)
  average eigenvalue GAMMA=   0.9970
  2.0611  1.9480  1.9480  0.6641  0.6641  0.4812  0.4812  0.3857  0.3396

 Free energy of the ion-electron system (eV)
  ---------------------------------------------------
  alpha Z        PSCENC =       333.20899252
  Ewald energy   TEWEN  =     33195.71850019
  -Hartree energ DENC   =    -43924.57453069
  -exchange      EXHF   =         0.00000000
  -V(xc)+E(xc)   XCENC  =      -950.70997467
  PAW double counting   =     17977.12581845   -16464.18706957
  entropy T*S    EENTRO =        -0.05021697
  eigenvalues    EBANDS =     -2096.92486665
  atomic energy  EATOM  =     11615.02873374
  Solvation  Ediel_sol  =         0.00000000
  ---------------------------------------------------
  free energy    TOTEN  =      -315.36461365 eV

  energy without entropy =     -315.31439668  energy(sigma->0) =     -315.33950516


--------------------------------------------------------------------------------------------------------




--------------------------------------- Iteration      1(  15)  ---------------------------------------


    POTLOK:  cpu time    0.0383: real time    0.0516
    SETDIJ:  cpu time    0.0037: real time    0.0037
     EDDAV:  cpu time    6.9800: real time    6.9939
       DOS:  cpu time    0.0031: real time    0.0031
    CHARGE:  cpu time    0.1929: real time    0.1933
    MIXING:  cpu time    0.0019: real time    0.0019
    --------------------------------------------
      LOOP:  cpu time    7.2198: real time    7.2475

 eigenvalue-minimisations  :  7064
 total energy-change (2. order) : 0.1415328E+00  (-0.2795265E-01)
 number of electron     285.9999939 magnetization 
 augmentation part      -16.7204739 magnetization 

 Broyden mixing:
  rms(total) = 0.32597E+00    rms(broyden)= 0.32597E+00
  rms(prec ) = 0.34296E+00
  weight for this iteration     100.00

 eigenvalues of (default mixing * dielectric matrix)
  average eigenvalue GAMMA=   0.9655
  2.0457  2.0457  2.0572  0.6939  0.6939  0.4968  0.4968  0.3917  0.3917  0.3417

 Free energy of the ion-electron system (eV)
  ---------------------------------------------------
  alpha Z        PSCENC =       333.20899252
  Ewald energy   TEWEN  =     33195.71850019
  -Hartree energ DENC   =    -43935.60948544
  -exchange      EXHF   =         0.00000000
  -V(xc)+E(xc)   XCENC  =      -950.45113950
  PAW double counting   =     17954.26681199   -16441.05760757
  entropy T*S    EENTRO =        -0.06734580
  eigenvalues    EBANDS =     -2086.26054094
  atomic energy  EATOM  =     11615.02873374
  Solvation  Ediel_sol  =         0.00000000
  ---------------------------------------------------
  free energy    TOTEN  =      -315.22308082 eV

  energy without entropy =     -315.15573502  energy(sigma->0) =     -315.18940792


--------------------------------------------------------------------------------------------------------




--------------------------------------- Iteration      1(  16)  ---------------------------------------


    POTLOK:  cpu time    0.0397: real time    0.0509
    SETDIJ:  cpu time    0.0038: real time    0.0038
     EDDAV:  cpu time    6.8981: real time    6.9123
       DOS:  cpu time    0.0028: real time    0.0028
    CHARGE:  cpu time    0.1920: real time    0.1924
    MIXING:  cpu time    0.0017: real time    0.0017
    --------------------------------------------
      LOOP:  cpu time    7.1380: real time    7.1639

 eigenvalue-minimisations  :  6968
 total energy-change (2. order) : 0.3604414E-02  (-0.2363366E-02)
 number of electron     285.9999939 magnetization 
 augmentation part      -16.7355207 magnetization 

 Broyden mixing:
  rms(total) = 0.27099E+00    rms(broyden)= 0.27099E+00
  rms(prec ) = 0.29416E+00
  weight for this iteration     100.00

 eigenvalues of (default mixing * dielectric matrix)
  average eigenvalue GAMMA=   1.0157
  2.2116  2.2116  1.9992  1.0077  1.0077  0.5933  0.5933  0.4240  0.4240  0.3660
  0.3342

 Free energy of the ion-electron system (eV)
  ---------------------------------------------------
  alpha Z        PSCENC =       333.20899252
  Ewald energy   TEWEN  =     33195.71850019
  -Hartree energ DENC   =    -43939.95690298
  -exchange      EXHF   =         0.00000000
  -V(xc)+E(xc)   XCENC  =      -950.37353057
  PAW double counting   =     17941.05670784   -16427.78884492
  entropy T*S    EENTRO =        -0.06240085
  eigenvalues    EBANDS =     -2082.05073138
  atomic energy  EATOM  =     11615.02873374
  Solvation  Ediel_sol  =         0.00000000
  ---------------------------------------------------
  free energy    TOTEN  =      -315.21947641 eV

  energy without entropy =     -315.15707556  energy(sigma->0) =     -315.18827598


--------------------------------------------------------------------------------------------------------




--------------------------------------- Iteration      1(  17)  ---------------------------------------


    POTLOK:  cpu time    0.0382: real time    0.0529
    SETDIJ:  cpu time    0.0037: real time    0.0038
     EDDAV:  cpu time    6.8878: real time    6.9013
       DOS:  cpu time    0.0031: real time    0.0031
    CHARGE:  cpu time    0.1925: real time    0.1929
    MIXING:  cpu time    0.0018: real time    0.0018
    --------------------------------------------
      LOOP:  cpu time    7.1271: real time    7.1558

 eigenvalue-minimisations  :  6936
 total energy-change (2. order) : 0.3404351E-01  (-0.1558314E-01)
 number of electron     285.9999939 magnetization 
 augmentation part      -16.5180944 magnetization 

 Broyden mixing:
  rms(total) = 0.15256E+00    rms(broyden)= 0.15256E+00
  rms(prec ) = 0.17026E+00
  weight for this iteration     100.00

 eigenvalues of (default mixing * dielectric matrix)
  average eigenvalue GAMMA=   0.9926
  2.3342  2.3342  1.4433  1.3756  1.3756  0.6249  0.6249  0.4363  0.4363  0.3938
  0.3394  0.1925

 Free energy of the ion-electron system (eV)
  ---------------------------------------------------
  alpha Z        PSCENC =       333.20899252
  Ewald energy   TEWEN  =     33195.71850019
  -Hartree energ DENC   =    -43949.06414983
  -exchange      EXHF   =         0.00000000
  -V(xc)+E(xc)   XCENC  =      -950.16869206
  PAW double counting   =     17907.13889267   -16393.69913731
  entropy T*S    EENTRO =        -0.07145934
  eigenvalues    EBANDS =     -2073.27711348
  atomic energy  EATOM  =     11615.02873374
  Solvation  Ediel_sol  =         0.00000000
  ---------------------------------------------------
  free energy    TOTEN  =      -315.18543290 eV

  energy without entropy =     -315.11397356  energy(sigma->0) =     -315.14970323


--------------------------------------------------------------------------------------------------------




--------------------------------------- Iteration      1(  18)  ---------------------------------------


    POTLOK:  cpu time    0.0389: real time    0.0524
    SETDIJ:  cpu time    0.0039: real time    0.0039
     EDDAV:  cpu time    6.9691: real time    6.9835
       DOS:  cpu time    0.0029: real time    0.0029
    CHARGE:  cpu time    0.1921: real time    0.1925
    MIXING:  cpu time    0.0019: real time    0.0019
    --------------------------------------------
      LOOP:  cpu time    7.2088: real time    7.2371

 eigenvalue-minimisations  :  7072
 total energy-change (2. order) : 0.1616453E-01  (-0.1012571E-01)
 number of electron     285.9999939 magnetization 
 augmentation part      -16.3686686 magnetization 

 Broyden mixing:
  rms(total) = 0.56243E-01    rms(broyden)= 0.56241E-01
  rms(prec ) = 0.62956E-01
  weight for this iteration     100.00

 eigenvalues of (default mixing * dielectric matrix)
  average eigenvalue GAMMA=   1.0278
  2.8634  2.4867  1.6635  1.6635  0.9464  0.6499  0.6499  0.6774  0.4320  0.4320
  0.3792  0.3348  0.1832

 Free energy of the ion-electron system (eV)
  ---------------------------------------------------
  alpha Z        PSCENC =       333.20899252
  Ewald energy   TEWEN  =     33195.71850019
  -Hartree energ DENC   =    -43956.47234180
  -exchange      EXHF   =         0.00000000
  -V(xc)+E(xc)   XCENC  =      -950.00909741
  PAW double counting   =     17880.54671446   -16366.99790063
  entropy T*S    EENTRO =        -0.07538145
  eigenvalues    EBANDS =     -2066.11748798
  atomic energy  EATOM  =     11615.02873374
  Solvation  Ediel_sol  =         0.00000000
  ---------------------------------------------------
  free energy    TOTEN  =      -315.16926837 eV

  energy without entropy =     -315.09388692  energy(sigma->0) =     -315.13157764


--------------------------------------------------------------------------------------------------------




--------------------------------------- Iteration      1(  19)  ---------------------------------------


    POTLOK:  cpu time    0.0387: real time    0.0513
    SETDIJ:  cpu time    0.0037: real time    0.0037
     EDDAV:  cpu time    6.9209: real time    6.9348
       DOS:  cpu time    0.0030: real time    0.0030
    CHARGE:  cpu time    0.1933: real time    0.1937
    MIXING:  cpu time    0.0037: real time    0.0037
    --------------------------------------------
      LOOP:  cpu time    7.1633: real time    7.1902

 eigenvalue-minimisations  :  7012
 total energy-change (2. order) :-0.9095174E-04  (-0.3602641E-02)
 number of electron     285.9999939 magnetization 
 augmentation part      -16.4256351 magnetization 

 Broyden mixing:
  rms(total) = 0.61882E-01    rms(broyden)= 0.61881E-01
  rms(prec ) = 0.70063E-01
  weight for this iteration     100.00

 eigenvalues of (default mixing * dielectric matrix)
  average eigenvalue GAMMA=   1.0080
  2.9846  2.2940  1.7604  1.7604  0.8627  0.8627  0.6435  0.6435  0.5475  0.4285
  0.4285  0.3764  0.3363  0.1826

 Free energy of the ion-electron system (eV)
  ---------------------------------------------------
  alpha Z        PSCENC =       333.20899252
  Ewald energy   TEWEN  =     33195.71850019
  -Hartree energ DENC   =    -43962.17980899
  -exchange      EXHF   =         0.00000000
  -V(xc)+E(xc)   XCENC  =      -949.92657849
  PAW double counting   =     17867.85340841   -16354.32053098
  entropy T*S    EENTRO =        -0.06718992
  eigenvalues    EBANDS =     -2060.48488581
  atomic energy  EATOM  =     11615.02873374
  Solvation  Ediel_sol  =         0.00000000
  ---------------------------------------------------
  free energy    TOTEN  =      -315.16935932 eV

  energy without entropy =     -315.10216941  energy(sigma->0) =     -315.13576436


--------------------------------------------------------------------------------------------------------




--------------------------------------- Iteration      1(  20)  ---------------------------------------


    POTLOK:  cpu time    0.0458: real time    0.0566
    SETDIJ:  cpu time    0.0044: real time    0.0044
     EDDAV:  cpu time    6.9797: real time    6.9936
       DOS:  cpu time    0.0032: real time    0.0032
    CHARGE:  cpu time    0.1938: real time    0.1941
    MIXING:  cpu time    0.0022: real time    0.0022
    --------------------------------------------
      LOOP:  cpu time    7.2292: real time    7.2542

 eigenvalue-minimisations  :  7040
 total energy-change (2. order) :-0.2870586E-02  (-0.5137174E-02)
 number of electron     285.9999939 magnetization 
 augmentation part      -16.2790566 magnetization 

 Broyden mixing:
  rms(total) = 0.71854E-01    rms(broyden)= 0.71853E-01
  rms(prec ) = 0.84156E-01
  weight for this iteration     100.00

 eigenvalues of (default mixing * dielectric matrix)
  average eigenvalue GAMMA=   1.0047
  3.1072  2.2373  1.8595  1.8595  1.0177  1.0177  0.6590  0.6590  0.5646  0.4442
  0.4442  0.3958  0.3376  0.2849  0.1827

 Free energy of the ion-electron system (eV)
  ---------------------------------------------------
  alpha Z        PSCENC =       333.20899252
  Ewald energy   TEWEN  =     33195.71850019
  -Hartree energ DENC   =    -43963.27641588
  -exchange      EXHF   =         0.00000000
  -V(xc)+E(xc)   XCENC  =      -949.89661953
  PAW double counting   =     17866.56017101   -16352.98006628
  entropy T*S    EENTRO =        -0.07697643
  eigenvalues    EBANDS =     -2059.45854924
  atomic energy  EATOM  =     11615.02873374
  Solvation  Ediel_sol  =         0.00000000
  ---------------------------------------------------
  free energy    TOTEN  =      -315.17222991 eV

  energy without entropy =     -315.09525348  energy(sigma->0) =     -315.13374169


--------------------------------------------------------------------------------------------------------




--------------------------------------- Iteration      1(  21)  ---------------------------------------


    POTLOK:  cpu time    0.0407: real time    0.0512
    SETDIJ:  cpu time    0.0041: real time    0.0041
     EDDAV:  cpu time    6.6096: real time    6.6232
       DOS:  cpu time    0.0030: real time    0.0030
    CHARGE:  cpu time    0.1922: real time    0.1927
    MIXING:  cpu time    0.0021: real time    0.0021
    --------------------------------------------
      LOOP:  cpu time    6.8518: real time    6.8764

 eigenvalue-minimisations  :  6572
 total energy-change (2. order) : 0.3878666E-02  (-0.1283468E-02)
 number of electron     285.9999939 magnetization 
 augmentation part      -16.3368421 magnetization 

 Broyden mixing:
  rms(total) = 0.33897E-01    rms(broyden)= 0.33897E-01
  rms(prec ) = 0.36249E-01
  weight for this iteration     100.00

 eigenvalues of (default mixing * dielectric matrix)
  average eigenvalue GAMMA=   1.0336
  3.0037  2.1458  2.1458  2.2254  1.1731  1.1731  0.6579  0.6579  0.5646  0.5646
  0.5396  0.4074  0.4074  0.3572  0.3313  0.1826

 Free energy of the ion-electron system (eV)
  ---------------------------------------------------
  alpha Z        PSCENC =       333.20899252
  Ewald energy   TEWEN  =     33195.71850019
  -Hartree energ DENC   =    -43966.32674337
  -exchange      EXHF   =         0.00000000
  -V(xc)+E(xc)   XCENC  =      -949.87058181
  PAW double counting   =     17865.89312861   -16352.34353497
  entropy T*S    EENTRO =        -0.07241161
  eigenvalues    EBANDS =     -2056.40443455
  atomic energy  EATOM  =     11615.02873374
  Solvation  Ediel_sol  =         0.00000000
  ---------------------------------------------------
  free energy    TOTEN  =      -315.16835124 eV

  energy without entropy =     -315.09593963  energy(sigma->0) =     -315.13214544


--------------------------------------------------------------------------------------------------------




--------------------------------------- Iteration      1(  22)  ---------------------------------------


[...]
    110      -3.8114      2.00000
    111      -3.8078      2.00000
    112      -3.7781      2.00000
    113      -3.7542      2.00000
    114      -3.7482      2.00000
    115      -3.7126      2.00000
    116      -3.6496      2.00000
    117      -3.5341      2.00000
    118      -3.5332      2.00000
    119      -3.4793      2.00000
    120      -3.4751      2.00000
    121      -3.3708      2.00000
    122      -3.3393      2.00000
    123      -3.3332      2.00000
    124      -3.2619      2.00000
    125      -3.2226      2.00000
    126      -3.1852      2.00000
    127      -3.1218      2.00000
    128      -3.0918      2.00000
    129      -3.0750      2.00000
    130      -3.0414      2.00000
    131      -2.9680      2.00000
    132      -2.9234      2.00000
    133      -2.8662      2.00000
    134      -2.8414      2.00000
    135      -2.8140      2.00000
    136      -2.7790      2.00000
    137      -2.7228      2.00000
    138      -2.6668      2.00000
    139      -2.6164      2.00000
    140      -2.5588      1.99999
    141      -2.4507      1.99717
    142      -2.3826      1.95679
    143      -2.3269      1.78287
    144      -2.1578      0.24710
    145      -0.8618      0.00000
    146      -0.7935      0.00000
    147      -0.6654      0.00000
    148      -0.5881      0.00000
    149      -0.5691      0.00000
    150      -0.5505      0.00000
    151      -0.5172      0.00000
    152      -0.5044      0.00000
    153      -0.4789      0.00000
    154      -0.4727      0.00000
    155      -0.4492      0.00000
    156      -0.4327      0.00000
    157      -0.4192      0.00000
    158      -0.3377      0.00000
    159      -0.2680      0.00000
    160      -0.2575      0.00000
    161      -0.2359      0.00000
    162      -0.2301      0.00000
    163      -0.1989      0.00000
    164      -0.1694      0.00000
    165      -0.1624      0.00000
    166      -0.1492      0.00000
    167      -0.1084      0.00000
    168      -0.0826      0.00000
    169      -0.0735      0.00000
    170      -0.0713      0.00000
    171      -0.0295      0.00000
    172       0.0101      0.00000


--------------------------------------------------------------------------------------------------------


 soft charge-density along one line, spin component           1
         0         1         2         3         4         5         6         7         8         9
 total charge-density along one line
 
 pseudopotential strength for first ion, spin component:           1
 30.758  35.000  -0.000   0.080  -0.000  -0.000   0.114  -0.000
 35.000  39.833  -0.000   0.091  -0.000  -0.000   0.130  -0.000
 -0.000  -0.000   7.202  -0.000  -0.000  10.155  -0.000  -0.000
  0.080   0.091  -0.000   7.198  -0.000  -0.000  10.148  -0.000
 -0.000  -0.000  -0.000  -0.000   7.202  -0.000  -0.000  10.155
 -0.000  -0.000  10.155  -0.000  -0.000  14.351  -0.000  -0.000
  0.114   0.130  -0.000  10.148  -0.000  -0.000  14.342  -0.000
 -0.000  -0.000  -0.000  -0.000  10.155  -0.000  -0.000  14.351
 -0.000  -0.000  -0.000  -0.000  -0.000  -0.000  -0.000  -0.001
 -0.000  -0.000   0.022   0.000  -0.000   0.031   0.000  -0.000
 -0.005  -0.005   0.000   0.026   0.000   0.000   0.037   0.000
 -0.000  -0.000  -0.000  -0.000   0.022  -0.000  -0.000   0.031
 -0.000  -0.000  -0.000  -0.000  -0.000  -0.001  -0.000  -0.000
 total augmentation occupancy for first ion, spin component:           1
  5.904  -3.134  -0.002   1.981  -0.006   0.000  -0.427   0.002  -0.001  -0.000   0.005   0.000  -0.000
 -3.134   2.445   0.002  -1.855   0.006  -0.000   0.340  -0.002   0.000   0.001  -0.002   0.000   0.000
 -0.002   0.002   2.412   0.002   0.002  -0.431  -0.000   0.001   0.000   0.169  -0.000   0.000  -0.052
  1.981  -1.855   0.002   2.647   0.002  -0.000  -0.475  -0.000  -0.000   0.000   0.095  -0.000  -0.000
 -0.006   0.006   0.002   0.002   2.409   0.001  -0.000  -0.431  -0.052  -0.000   0.000   0.168  -0.001
  0.000  -0.000  -0.431  -0.000   0.001   0.098   0.000  -0.000   0.000  -0.028  -0.000   0.000   0.004
 -0.427   0.340  -0.000  -0.475  -0.000   0.000   0.106   0.000  -0.000  -0.000  -0.031   0.000  -0.000
  0.002  -0.002   0.001  -0.000  -0.431  -0.000   0.000   0.098   0.004   0.000  -0.000  -0.028   0.000
 -0.001   0.000   0.000  -0.000  -0.052   0.000  -0.000   0.004   0.018  -0.000   0.000   0.001   0.000
 -0.000   0.001   0.169   0.000  -0.000  -0.028  -0.000   0.000  -0.000   0.019   0.000  -0.000   0.001
  0.005  -0.002  -0.000   0.095   0.000  -0.000  -0.031  -0.000   0.000   0.000   0.019   0.000   0.000
  0.000   0.000   0.000  -0.000   0.168   0.000   0.000  -0.028   0.001  -0.000   0.000   0.019   0.000
 -0.000   0.000  -0.052  -0.000  -0.001   0.004  -0.000   0.000   0.000   0.001   0.000   0.000   0.018


------------------------ aborting loop because EDIFF is reached ----------------------------------------


    CHARGE:  cpu time    0.1953: real time    0.1956
    FORLOC:  cpu time    0.0110: real time    0.0110
    FORNL :  cpu time    0.7067: real time    0.7115
    STRESS:  cpu time    2.1194: real time    2.1286
    FORCOR:  cpu time    0.0509: real time    0.0526
    FORHAR:  cpu time    0.0184: real time    0.0212
    MIXING:  cpu time    0.0034: real time    0.0034
    OFIELD:  cpu time    0.0001: real time    0.0001

  FORCE on cell =-STRESS in cart. coord.  units (eV):
  Direction    XX          YY          ZZ          XY          YZ          ZX
  --------------------------------------------------------------------------------------
  Alpha Z   333.20899   333.20899   333.20899
  Ewald   41736.84532 41729.02902-50270.19632     0.06905    -0.00000    -0.00000
  Hartree 43484.71221 43482.04477-42988.83310     0.01181     0.00000    -0.00000
  E(xc)   -1145.03369 -1145.10141 -1158.53170    -0.00022     0.00000    -0.00000
  Local  -88906.22699-88895.53741 89510.87346    -0.07306     0.00000     0.00000
  n-local  1044.90381  1043.95501  1124.60959     0.02228     0.01232     0.00395
  augment    39.59481    40.81179    26.70261    -0.00017    -0.00021     0.00004
  Kinetic  3405.55950  3405.99809  3422.04890    -0.00837     0.00009     0.00010
  Fock        0.00000     0.00000     0.00000     0.00000     0.00000     0.00000
  -------------------------------------------------------------------------------------
  Total      -6.43604    -5.59113    -0.11756     0.02132     0.00000     0.00000
  in kB      -3.35069    -2.91082    -0.06120     0.01110     0.00000     0.00000
  external pressure =       -2.11 kB  Pullay stress =        0.00 kB


 VOLUME and BASIS-vectors are now :
 -----------------------------------------------------------------------------
  energy-cutoff  :      450.00
  volume of cell :     3077.47
      direct lattice vectors                 reciprocal lattice vectors
    13.329643250  0.000000000  0.000000000     0.075020762  0.043314589  0.000000000
    -6.664975339 11.543720929  0.000000000     0.000000000  0.086627181  0.000000000
     0.000000000  0.000000000 20.000000000     0.000000000  0.000000000  0.050000000

  length of vectors
    13.329643250 13.329643250 20.000000000     0.086627181  0.086627181  0.050000000


 FORCES acting on ions
    electron-ion (+dipol)            ewald-force                    non-local-force                 convergence-correction
 -----------------------------------------------------------------------------------------------
   -.308E+01 -.110E+01 0.483E+03   0.307E+01 0.111E+01 -.486E+03   -.490E-02 -.229E-01 0.272E+01   0.137E-01 0.600E-02 -.101E-01
   -.119E-02 -.640E+00 0.480E+03   0.156E-02 0.630E+00 -.483E+03   0.241E-03 0.138E-01 0.274E+01   -.232E-03 -.427E-02 -.133E-01
   0.465E+00 0.202E+01 0.480E+03   -.490E+00 -.206E+01 -.483E+03   0.262E-01 0.263E-01 0.277E+01   0.185E-02 0.660E-02 -.128E-01
   -.167E+01 -.245E+01 0.482E+03   0.164E+01 0.247E+01 -.485E+03   0.196E-01 -.232E-01 0.273E+01   0.882E-02 0.548E-02 -.716E-02
   -.491E+01 -.662E+01 0.467E+03   0.497E+01 0.693E+01 -.469E+03   -.854E-01 -.361E+00 0.264E+01   0.220E-01 0.513E-01 0.410E-01
   -.448E+01 0.212E+01 0.477E+03   0.478E+01 -.228E+01 -.479E+03   -.343E+00 0.197E+00 0.245E+01   0.497E-01 -.341E-01 0.274E-01
   -.471E+00 0.201E+01 0.480E+03   0.495E+00 -.204E+01 -.483E+03   -.246E-01 0.247E-01 0.277E+01   -.127E-02 0.648E-02 -.125E-01
   -.315E-02 -.438E+01 0.486E+03   0.371E-02 0.446E+01 -.489E+03   -.177E-02 -.923E-01 0.260E+01   0.801E-04 0.162E-01 0.372E-02
   0.499E+01 -.653E+01 0.467E+03   -.505E+01 0.684E+01 -.469E+03   0.865E-01 -.357E+00 0.264E+01   -.217E-01 0.518E-01 0.423E-01
   0.109E+00 0.745E+01 0.457E+03   -.111E+00 -.781E+01 -.459E+03   0.108E-02 0.432E+00 0.244E+01   0.475E-03 -.653E-01 0.656E-01
   -.805E+00 0.462E+01 0.484E+03   0.835E+00 -.464E+01 -.487E+03   -.343E-01 0.308E-01 0.269E+01   0.315E-03 -.835E-02 -.139E-01
   0.169E+01 -.244E+01 0.482E+03   -.166E+01 0.246E+01 -.485E+03   -.222E-01 -.231E-01 0.273E+01   -.823E-02 0.542E-02 -.600E-02
   0.302E+01 -.109E+01 0.483E+03   -.301E+01 0.110E+01 -.486E+03   0.451E-02 -.221E-01 0.271E+01   -.140E-01 0.597E-02 -.897E-02
   0.435E+01 0.203E+01 0.477E+03   -.464E+01 -.219E+01 -.479E+03   0.342E+00 0.196E+00 0.245E+01   -.500E-01 -.352E-01 0.286E-01
   0.810E+00 0.455E+01 0.484E+03   -.840E+00 -.457E+01 -.487E+03   0.346E-01 0.311E-01 0.268E+01   -.878E-03 -.857E-02 -.146E-01
   -.192E-01 -.282E+00 0.479E+03   0.198E-01 0.289E+00 -.482E+03   -.492E-03 -.348E-02 0.278E+01   -.664E-03 -.333E-03 -.111E-01
   -.308E+01 -.110E+01 -.483E+03   0.307E+01 0.111E+01 0.486E+03   -.490E-02 -.229E-01 -.272E+01   0.137E-01 0.600E-02 0.101E-01
   -.119E-02 -.640E+00 -.480E+03   0.156E-02 0.630E+00 0.483E+03   0.241E-03 0.138E-01 -.274E+01   -.232E-03 -.427E-02 0.133E-01
   0.465E+00 0.202E+01 -.480E+03   -.490E+00 -.206E+01 0.483E+03   0.262E-01 0.263E-01 -.277E+01   0.185E-02 0.660E-02 0.128E-01
   -.167E+01 -.245E+01 -.482E+03   0.164E+01 0.247E+01 0.485E+03   0.196E-01 -.232E-01 -.273E+01   0.882E-02 0.548E-02 0.716E-02
   -.491E+01 -.662E+01 -.467E+03   0.497E+01 0.693E+01 0.469E+03   -.854E-01 -.361E+00 -.264E+01   0.220E-01 0.513E-01 -.410E-01
   -.448E+01 0.212E+01 -.477E+03   0.478E+01 -.228E+01 0.479E+03   -.343E+00 0.197E+00 -.245E+01   0.497E-01 -.341E-01 -.274E-01
   -.471E+00 0.201E+01 -.480E+03   0.495E+00 -.204E+01 0.483E+03   -.246E-01 0.247E-01 -.277E+01   -.127E-02 0.648E-02 0.125E-01
   -.315E-02 -.438E+01 -.486E+03   0.371E-02 0.446E+01 0.489E+03   -.177E-02 -.923E-01 -.260E+01   0.801E-04 0.162E-01 -.372E-02
   0.499E+01 -.653E+01 -.467E+03   -.505E+01 0.684E+01 0.469E+03   0.865E-01 -.357E+00 -.264E+01   -.217E-01 0.518E-01 -.423E-01
   0.109E+00 0.745E+01 -.457E+03   -.111E+00 -.781E+01 0.459E+03   0.108E-02 0.432E+00 -.244E+01   0.475E-03 -.653E-01 -.656E-01
   -.805E+00 0.462E+01 -.484E+03   0.835E+00 -.464E+01 0.487E+03   -.343E-01 0.308E-01 -.269E+01   0.315E-03 -.835E-02 0.139E-01
   0.169E+01 -.244E+01 -.482E+03   -.166E+01 0.246E+01 0.485E+03   -.222E-01 -.231E-01 -.273E+01   -.823E-02 0.542E-02 0.600E-02
   0.302E+01 -.109E+01 -.483E+03   -.301E+01 0.110E+01 0.486E+03   0.451E-02 -.221E-01 -.271E+01   -.140E-01 0.597E-02 0.897E-02
   0.435E+01 0.203E+01 -.477E+03   -.464E+01 -.219E+01 0.479E+03   0.342E+00 0.196E+00 -.245E+01   -.500E-01 -.352E-01 -.286E-01
   0.810E+00 0.455E+01 -.484E+03   -.840E+00 -.457E+01 0.487E+03   0.346E-01 0.311E-01 -.268E+01   -.878E-03 -.857E-02 0.146E-01
   -.192E-01 -.282E+00 -.479E+03   0.198E-01 0.289E+00 0.482E+03   -.492E-03 -.348E-02 -.278E+01   -.664E-03 -.333E-03 0.111E-01
   -.463E+01 -.349E+01 0.871E-06   0.466E+01 0.363E+01 -.323E-06   -.547E-01 -.162E+00 0.813E-19   0.267E-01 0.239E-01 0.542E-07
   -.392E+01 -.239E+01 -.275E-06   0.402E+01 0.236E+01 -.306E-06   -.138E+00 0.212E-01 0.000E+00   0.304E-01 -.355E-02 0.613E-07
   0.402E-01 0.152E+01 -.729E-06   -.410E-01 -.155E+01 -.301E-06   0.141E-02 0.357E-01 0.000E+00   0.121E-03 0.250E-02 0.628E-07
   0.208E+00 -.125E+01 0.120E-05   -.291E+00 0.121E+01 -.283E-06   0.726E-01 0.158E-01 -.102E-19   0.797E-02 0.146E-01 0.554E-07
   -.273E-02 -.108E+02 0.379E-06   0.297E-02 0.103E+02 -.355E-06   0.667E-04 0.427E+00 -.542E-19   -.119E-04 0.482E-01 0.463E-07
   -.124E+01 0.471E+01 0.134E-06   0.138E+01 -.477E+01 -.302E-06   -.152E+00 0.921E-01 0.108E-18   0.137E-01 -.249E-01 0.591E-07
   -.184E+00 -.127E+01 0.994E-06   0.265E+00 0.124E+01 -.283E-06   -.712E-01 0.154E-01 0.108E-18   -.724E-02 0.146E-01 0.556E-07
   0.459E+01 -.342E+01 0.737E-06   -.462E+01 0.355E+01 -.323E-06   0.526E-01 -.161E+00 0.678E-20   -.260E-01 0.237E-01 0.539E-07
   0.598E-01 0.852E+01 0.185E-05   -.573E-01 -.872E+01 -.339E-06   -.268E-02 0.252E+00 0.000E+00   -.405E-03 -.474E-01 0.518E-07
   0.234E+00 -.884E-01 0.455E-06   -.262E+00 -.420E-02 -.289E-06   0.303E-01 0.899E-01 0.271E-19   -.425E-02 0.285E-02 0.543E-07
   -.450E-02 -.315E-01 0.423E-06   0.373E-02 0.750E-01 -.289E-06   0.676E-03 -.419E-01 0.271E-19   -.709E-03 0.330E-02 0.583E-07
   0.386E+01 -.241E+01 -.650E-07   -.397E+01 0.239E+01 -.306E-06   0.139E+00 0.221E-01 -.136E-19   -.305E-01 -.431E-02 0.609E-07
   0.113E+01 0.466E+01 -.292E-06   -.127E+01 -.472E+01 -.302E-06   0.154E+00 0.902E-01 0.000E+00   -.135E-01 -.252E-01 0.588E-07
   -.236E+00 -.974E-01 0.440E-06   0.264E+00 0.281E-02 -.289E-06   -.306E-01 0.942E-01 -.339E-20   0.354E-02 0.281E-02 0.545E-07
   -.799E+01 0.351E+01 -.104E-06   0.773E+01 -.317E+01 -.249E-06   0.224E+00 -.312E+00 -.678E-20   0.306E-01 -.157E-01 0.308E-07
   0.809E+01 0.355E+01 0.179E-06   -.783E+01 -.322E+01 -.248E-06   -.224E+00 -.317E+00 0.000E+00   -.306E-01 -.160E-01 0.306E-07
 -----------------------------------------------------------------------------------------------
   -.248E-03 -.246E+00 -.173E-03   0.657E-13 0.546E-13 -.173E-11   -.365E-02 0.254E+00 -.888E-14   -.939E-04 -.196E-02 0.223E-05
 
 
 POSITION                                       TOTAL-FORCE (eV/Angst)
 -----------------------------------------------------------------------------------
     -0.00136      1.92407      8.65441         0.001739     -0.004058     -0.000459
     -1.66647      4.80457      8.66593         0.000462     -0.001178      0.000735
     -3.33759      7.69201      8.66657         0.003067     -0.003981     -0.001827
     -4.99777     10.58418      8.66038         0.000839      0.000141     -0.003391
      3.34158      1.95840      8.70714         0.001798      0.003452      0.001015
      1.69033      4.79893      8.67198         0.004474     -0.001514     -0.005478
      0.00493      7.69185      8.66673        -0.001668     -0.005245     -0.002524
     -1.66655     10.55902      8.64414        -0.001046      0.000071      0.003198
      6.65655      1.95882      8.70723        -0.002235      0.004171      0.000135
      4.99896      4.78117      8.74276        -0.000700      0.005675     -0.010583
      3.33230      7.69700      8.65088        -0.003160      0.001686     -0.000122
      1.66460     10.58403      8.66047        -0.001956      0.000802     -0.005191
      9.99872      1.92427      8.65369        -0.002050     -0.004155     -0.001527
      8.30588      4.79860      8.67186        -0.002777     -0.000999     -0.004384
      6.66488      7.69697      8.64996         0.003413      0.002382      0.002282
      4.99820     10.57858      8.67130        -0.000483      0.003051     -0.000157
     -0.00136      1.92407     11.99916         0.001739     -0.004058      0.000459
     -1.66647      4.80457     11.98764         0.000462     -0.001178     -0.000735
     -3.33759      7.69201     11.98700         0.003067     -0.003981      0.001827
     -4.99777     10.58418     11.99319         0.000839      0.000141      0.003391
      3.34158      1.95840     11.94643         0.001798      0.003452     -0.001015
      1.69033      4.79893     11.98159         0.004474     -0.001514      0.005478
      0.00493      7.69185     11.98684        -0.001668     -0.005245      0.002524
     -1.66655     10.55902     12.00943        -0.001046      0.000071     -0.003198
      6.65655      1.95882     11.94634        -0.002235      0.004171     -0.000135
      4.99896      4.78117     11.91081        -0.000700      0.005675      0.010583
      3.33230      7.69700     12.00269        -0.003160      0.001686      0.000122
      1.66460     10.58403     11.99310        -0.001956      0.000802      0.005191
      9.99872      1.92427     11.99988        -0.002050     -0.004155      0.001527
      8.30588      4.79860     11.98171        -0.002777     -0.000999      0.004384
      6.66488      7.69697     12.00361         0.003413      0.002382     -0.002282
      4.99820     10.57858     11.98227        -0.000483      0.003051      0.000157
      1.65274      0.96105     10.32679         0.001013     -0.000701     -0.000000
      0.00335      3.83383     10.32679        -0.000379     -0.004744     -0.000000
     -1.66629      6.72990     10.32679         0.000742      0.000065     -0.000000
     -3.32915      9.62497     10.32679        -0.001795     -0.003263     -0.000000
      4.99899      0.90097     10.32679         0.000380     -0.001075     -0.000000
      1.67934      6.73632     10.32679         0.001225      0.000356     -0.000000
     -0.00392      9.62466     10.32679         0.002576     -0.002484     -0.000000
      8.34505      0.96115     10.32679        -0.000432     -0.000043     -0.000000
      4.99910      6.77168     10.32679        -0.000477      0.004046     -0.000000
      3.32140      9.61114     10.32679        -0.001546     -0.000017     -0.000000
     11.66326      0.97120     10.32679        -0.000727      0.004780     -0.000000
      9.99336      3.83384     10.32679         0.000946     -0.005714     -0.000000
      8.31719      6.73644     10.32679        -0.000317     -0.000987     -0.000000
      6.67518      9.61084     10.32679         0.000878      0.002272     -0.000000
      3.27203      3.88622     10.32679        -0.004520      0.005857     -0.000000
      6.72560      3.88634     10.32679         0.002997      0.001048     -0.000000
 -----------------------------------------------------------------------------------
    total drift:                               -0.003987      0.005229     -0.000171


--------------------------------------------------------------------------------------------------------



  FREE ENERGIE OF THE ION-ELECTRON SYSTEM (eV)
  ---------------------------------------------------
  free  energy   TOTEN  =      -315.17209179 eV

  energy  without entropy=     -315.10059263  energy(sigma->0) =     -315.13634221
 


--------------------------------------------------------------------------------------------------------


    POTLOK:  cpu time    0.0492: real time    0.0518


--------------------------------------------------------------------------------------------------------


 writing wavefunctions
     LOOP+:  cpu time  206.4632: real time  207.4864
    4ORBIT:  cpu time    0.0000: real time    0.0000

 total amount of memory used by VASP MPI-rank0    66020. kBytes
=======================================================================

   base      :      30000. kBytes
   nonlr-proj:       3263. kBytes
   fftplans  :       2625. kBytes
   grid      :       4808. kBytes
   one-center:         31. kBytes
   wavefun   :      25293. kBytes
 
  
  
 General timing and accounting informations for this job:
 ========================================================
  
                  Total CPU time used (sec):      226.446
                            User time (sec):      212.761
                          System time (sec):       13.685
                         Elapsed time (sec):      229.069
  
                   Maximum memory used (kb):      177704.
                   Average memory used (kb):           0.
  
                          Minor page faults:        69446
                          Major page faults:          153
                 Voluntary context switches:         6250
